ITEM: TIMESTEP
0
ITEM: NUMBER OF ATOMS
300
ITEM: BOX BOUNDS pp pp pp
0.0000000000000000e+00 2.0000000000000000e+01
0.0000000000000000e+00 2.0000000000000000e+01
0.0000000000000000e+00 2.0000000000000000e+01
ITEM: ATOMS id type xs ys zs
299 1 0.812239 0.769489 0.641241
300 1 0.854988 0.72674 0.641241
297 1 0.897737 0.769489 0.641241
294 1 0.72674 0.854988 0.641241
298 1 0.769489 0.812239 0.641241
291 1 0.854988 0.854988 0.598492
293 1 0.812239 0.854988 0.641241
296 1 0.854988 0.812239 0.641241
290 1 0.897737 0.854988 0.641241
288 1 0.983236 0.854988 0.641241
295 1 0.940487 0.812239 0.641241
292 1 0.769489 0.897737 0.641241
289 1 0.854988 0.897737 0.641241
287 1 0.940487 0.897737 0.641241
284 1 0.854988 0.983236 0.641241
286 1 0.812239 0.940487 0.641241
285 1 0.897737 0.940487 0.641241
276 1 0.854988 0.68399 0.68399
266 1 0.769489 0.769489 0.68399
282 1 0.72674 0.72674 0.68399
262 1 0.854988 0.769489 0.68399
279 1 0.812239 0.72674 0.68399
275 1 0.897737 0.72674 0.68399
258 1 0.940487 0.769489 0.68399
272 1 0.983236 0.72674 0.68399
253 1 0.68399 0.854988 0.68399
249 1 0.769489 0.854988 0.68399
269 1 0.72674 0.812239 0.68399
245 1 0.854988 0.854988 0.68399
265 1 0.812239 0.812239 0.68399
261 1 0.897737 0.812239 0.68399
241 1 0.940487 0.854988 0.68399
257 1 0.983236 0.812239 0.68399
252 1 0.72674 0.897737 0.68399
248 1 0.812239 0.897737 0.68399
244 1 0.897737 0.897737 0.68399
240 1 0.983236 0.897737 0.68399
234 1 0.769489 0.940487 0.68399
237 1 0.72674 0.983236 0.68399
230 1 0.854988 0.940487 0.68399
233 1 0.812239 0.983236 0.68399
229 1 0.897737 0.983236 0.68399
225 1 0.983236 0.983236 0.68399
226 1 0.940487 0.940487 0.68399
222 1 0.812239 0.641241 0.769489
283 1 0.854988 0.641241 0.72674
220 1 0.897737 0.641241 0.769489
214 1 0.769489 0.68399 0.769489
281 1 0.72674 0.68399 0.72674
210 1 0.854988 0.68399 0.769489
278 1 0.812239 0.68399 0.72674
274 1 0.897737 0.68399 0.72674
206 1 0.940487 0.68399 0.769489
271 1 0.983236 0.68399 0.72674
200 1 0.68399 0.769489 0.769489
280 1 0.68399 0.72674 0.72674
196 1 0.769489 0.769489 0.769489
217 1 0.72674 0.72674 0.769489
268 1 0.72674 0.769489 0.72674
277 1 0.769489 0.72674 0.72674
192 1 0.854988 0.769489 0.769489
213 1 0.812239 0.72674 0.769489
264 1 0.812239 0.769489 0.72674
273 1 0.854988 0.72674 0.72674
209 1 0.897737 0.72674 0.769489
260 1 0.897737 0.769489 0.72674
188 1 0.940487 0.769489 0.769489
205 1 0.983236 0.72674 0.769489
256 1 0.983236 0.769489 0.72674
270 1 0.940487 0.72674 0.72674
202 1 0.641241 0.812239 0.769489
254 1 0.641241 0.854988 0.72674
182 1 0.68399 0.854988 0.769489
267 1 0.68399 0.812239 0.72674
178 1 0.769489 0.854988 0.769489
199 1 0.72674 0.812239 0.769489
251 1 0.72674 0.854988 0.72674
263 1 0.769489 0.812239 0.72674
174 1 0.854988 0.854988 0.769489
195 1 0.812239 0.812239 0.769489
247 1 0.812239 0.854988 0.72674
259 1 0.854988 0.812239 0.72674
191 1 0.897737 0.812239 0.769489
243 1 0.897737 0.854988 0.72674
170 1 0.940487 0.854988 0.769489
187 1 0.983236 0.812239 0.769489
239 1 0.983236 0.854988 0.72674
255 1 0.940487 0.812239 0.72674
184 1 0.641241 0.897737 0.769489
250 1 0.68399 0.897737 0.72674
181 1 0.72674 0.897737 0.769489
246 1 0.769489 0.897737 0.72674
177 1 0.812239 0.897737 0.769489
242 1 0.854988 0.897737 0.72674
173 1 0.897737 0.897737 0.769489
169 1 0.983236 0.897737 0.769489
238 1 0.940487 0.897737 0.72674
165 1 0.68399 0.940487 0.769489
235 1 0.68399 0.983236 0.72674
161 1 0.769489 0.940487 0.769489
164 1 0.72674 0.983236 0.769489
231 1 0.769489 0.983236 0.72674
236 1 0.72674 0.940487 0.72674
157 1 0.854988 0.940487 0.769489
160 1 0.812239 0.983236 0.769489
227 1 0.854988 0.983236 0.72674
232 1 0.812239 0.940487 0.72674
156 1 0.897737 0.983236 0.769489
228 1 0.897737 0.940487 0.72674
152 1 0.983236 0.983236 0.769489
153 1 0.940487 0.940487 0.769489
223 1 0.940487 0.983236 0.72674
224 1 0.983236 0.940487 0.72674
149 1 0.72674 0.641241 0.854988
221 1 0.769489 0.641241 0.812239
146 1 0.854988 0.598492 0.854988
148 1 0.812239 0.641241 0.854988
219 1 0.854988 0.641241 0.812239
145 1 0.897737 0.641241 0.854988
143 1 0.983236 0.641241 0.854988
218 1 0.940487 0.641241 0.812239
140 1 0.68399 0.68399 0.854988
136 1 0.769489 0.68399 0.854988
216 1 0.72674 0.68399 0.812239
132 1 0.854988 0.68399 0.854988
212 1 0.812239 0.68399 0.812239
208 1 0.897737 0.68399 0.812239
128 1 0.940487 0.68399 0.854988
204 1 0.983236 0.68399 0.812239
141 1 0.641241 0.72674 0.854988
201 1 0.641241 0.769489 0.812239
122 1 0.68399 0.769489 0.854988
215 1 0.68399 0.72674 0.812239
118 1 0.769489 0.769489 0.854988
139 1 0.72674 0.72674 0.854988
198 1 0.72674 0.769489 0.812239
211 1 0.769489 0.72674 0.812239
114 1 0.854988 0.769489 0.854988
135 1 0.812239 0.72674 0.854988
194 1 0.812239 0.769489 0.812239
207 1 0.854988 0.72674 0.812239
131 1 0.897737 0.72674 0.854988
190 1 0.897737 0.769489 0.812239
110 1 0.940487 0.769489 0.854988
127 1 0.983236 0.72674 0.854988
186 1 0.983236 0.769489 0.812239
203 1 0.940487 0.72674 0.812239
106 1 0.598492 0.854988 0.854988
124 1 0.641241 0.812239 0.854988
183 1 0.641241 0.854988 0.812239
103 1 0.68399 0.854988 0.854988
197 1 0.68399 0.812239 0.812239
99 1 0.769489 0.854988 0.854988
121 1 0.72674 0.812239 0.854988
180 1 0.72674 0.854988 0.812239
193 1 0.769489 0.812239 0.812239
95 1 0.854988 0.854988 0.854988
117 1 0.812239 0.812239 0.854988
176 1 0.812239 0.854988 0.812239
189 1 0.854988 0.812239 0.812239
113 1 0.897737 0.812239 0.854988
172 1 0.897737 0.854988 0.812239
91 1 0.940487 0.854988 0.854988
109 1 0.983236 0.812239 0.854988
168 1 0.983236 0.854988 0.812239
185 1 0.940487 0.812239 0.812239
105 1 0.641241 0.897737 0.854988
179 1 0.68399 0.897737 0.812239
102 1 0.72674 0.897737 0.854988
175 1 0.769489 0.897737 0.812239
98 1 0.812239 0.897737 0.854988
171 1 0.854988 0.897737 0.812239
94 1 0.897737 0.897737 0.854988
90 1 0.983236 0.897737 0.854988
167 1 0.940487 0.897737 0.812239
87 1 0.641241 0.983236 0.854988
166 1 0.641241 0.940487 0.812239
85 1 0.68399 0.940487 0.854988
162 1 0.68399 0.983236 0.812239
81 1 0.769489 0.940487 0.854988
84 1 0.72674 0.983236 0.854988
158 1 0.769489 0.983236 0.812239
163 1 0.72674 0.940487 0.812239
77 1 0.854988 0.940487 0.854988
80 1 0.812239 0.983236 0.854988
154 1 0.854988 0.983236 0.812239
159 1 0.812239 0.940487 0.812239
76 1 0.897737 0.983236 0.854988
155 1 0.897737 0.940487 0.812239
72 1 0.983236 0.983236 0.854988
73 1 0.940487 0.940487 0.854988
150 1 0.940487 0.983236 0.812239
151 1 0.983236 0.940487 0.812239
147 1 0.769489 0.641241 0.897737
144 1 0.854988 0.641241 0.897737
142 1 0.940487 0.641241 0.897737
138 1 0.72674 0.68399 0.897737
134 1 0.812239 0.68399 0.897737
130 1 0.897737 0.68399 0.897737
126 1 0.983236 0.68399 0.897737
123 1 0.641241 0.769489 0.897737
137 1 0.68399 0.72674 0.897737
120 1 0.72674 0.769489 0.897737
133 1 0.769489 0.72674 0.897737
116 1 0.812239 0.769489 0.897737
129 1 0.854988 0.72674 0.897737
112 1 0.897737 0.769489 0.897737
108 1 0.983236 0.769489 0.897737
125 1 0.940487 0.72674 0.897737
104 1 0.641241 0.854988 0.897737
119 1 0.68399 0.812239 0.897737
101 1 0.72674 0.854988 0.897737
115 1 0.769489 0.812239 0.897737
97 1 0.812239 0.854988 0.897737
111 1 0.854988 0.812239 0.897737
93 1 0.897737 0.854988 0.897737
89 1 0.983236 0.854988 0.897737
107 1 0.940487 0.812239 0.897737
100 1 0.68399 0.897737 0.897737
96 1 0.769489 0.897737 0.897737
92 1 0.854988 0.897737 0.897737
88 1 0.940487 0.897737 0.897737
86 1 0.641241 0.940487 0.897737
82 1 0.68399 0.983236 0.897737
78 1 0.769489 0.983236 0.897737
83 1 0.72674 0.940487 0.897737
74 1 0.854988 0.983236 0.897737
79 1 0.812239 0.940487 0.897737
75 1 0.897737 0.940487 0.897737
70 1 0.940487 0.983236 0.897737
71 1 0.983236 0.940487 0.897737
67 1 0.854988 0.641241 0.983236
69 1 0.812239 0.641241 0.940487
68 1 0.897737 0.641241 0.940487
63 1 0.769489 0.68399 0.940487
65 1 0.72674 0.68399 0.983236
59 1 0.854988 0.68399 0.940487
61 1 0.812239 0.68399 0.983236
57 1 0.897737 0.68399 0.983236
53 1 0.983236 0.68399 0.983236
55 1 0.940487 0.68399 0.940487
50 1 0.68399 0.769489 0.940487
64 1 0.68399 0.72674 0.983236
46 1 0.769489 0.769489 0.940487
48 1 0.72674 0.769489 0.983236
60 1 0.769489 0.72674 0.983236
66 1 0.72674 0.72674 0.940487
42 1 0.854988 0.769489 0.940487
44 1 0.812239 0.769489 0.983236
56 1 0.854988 0.72674 0.983236
62 1 0.812239 0.72674 0.940487
40 1 0.897737 0.769489 0.983236
58 1 0.897737 0.72674 0.940487
36 1 0.983236 0.769489 0.983236
38 1 0.940487 0.769489 0.940487
52 1 0.940487 0.72674 0.983236
54 1 0.983236 0.72674 0.940487
33 1 0.641241 0.854988 0.983236
51 1 0.641241 0.812239 0.940487
32 1 0.68399 0.854988 0.940487
47 1 0.68399 0.812239 0.983236
28 1 0.769489 0.854988 0.940487
30 1 0.72674 0.854988 0.983236
43 1 0.769489 0.812239 0.983236
49 1 0.72674 0.812239 0.940487
24 1 0.854988 0.854988 0.940487
26 1 0.812239 0.854988 0.983236
39 1 0.854988 0.812239 0.983236
45 1 0.812239 0.812239 0.940487
22 1 0.897737 0.854988 0.983236
41 1 0.897737 0.812239 0.940487
18 1 0.983236 0.854988 0.983236
20 1 0.940487 0.854988 0.940487
35 1 0.940487 0.812239 0.983236
37 1 0.983236 0.812239 0.940487
34 1 0.641241 0.897737 0.940487
29 1 0.68399 0.897737 0.983236
25 1 0.769489 0.897737 0.983236
31 1 0.72674 0.897737 0.940487
21 1 0.854988 0.897737 0.983236
27 1 0.812239 0.897737 0.940487
23 1 0.897737 0.897737 0.940487
17 1 0.940487 0.897737 0.983236
19 1 0.983236 0.897737 0.940487
13 1 0.68399 0.983236 0.983236
16 1 0.68399 0.940487 0.940487
9 1 0.769489 0.983236 0.983236
12 1 0.769489 0.940487 0.940487
14 1 0.72674 0.940487 0.983236
15 1 0.72674 0.983236 0.940487
5 1 0.854988 0.983236 0.983236
8 1 0.854988 0.940487 0.940487
10 1 0.812239 0.940487 0.983236
11 1 0.812239 0.983236 0.940487
6 1 0.897737 0.940487 0.983236
7 1 0.897737 0.983236 0.940487
1 1 0.940487 0.983236 0.983236
2 1 0.983236 0.940487 0.983236
3 1 0.983236 0.983236 0.940487
4 1 0.940487 0.940487 0.940487
