11280
Atoms. Timestep: 80000
1 10.2988 -1.48409 -6.49893
2 -20.0727 9.21202 -0.0981666
1 -19.4613 -6.28487 2.28257
1 -15.1882 -8.10033 -8.95054
2 -26.3447 1.87889 -0.639486
1 5.33639 7.816 4.30414
2 -7.42534 3.55676 -4.89601
2 -26.3926 0.939528 3.73616
1 -9.96002 -3.17836 -7.1866
2 23.9312 -7.10303 0.68656
1 -18.5736 5.99009 2.72089
1 -26.6882 -0.451972 -1.12425
1 10.9483 -8.13094 4.0445
1 11.0956 2.45336 -5.9812
2 -6.45675 -2.93982 2.30289
1 13.1028 0.0529717 -5.40021
2 -23.2014 4.11137 -6.96249
2 -21.9187 4.18973 0.470241
2 28.9495 -3.80085 5.16046
1 -3.87863 -7.93988 -8.27488
1 16.6297 6.08448 1.60596
1 18.7044 1.65638 -1.59026
2 -9.19609 3.05886 -6.5541
1 20.3228 6.20414 2.0085
1 -28.4368 -6.40065 -4.53986
2 -7.36029 1.82813 -1.18237
1 -25.099 7.05941 0.916749
2 -17.477 3.07777 9.76882
1 24.6854 -8.82206 -8.45004
2 -24.3242 7.73364 -5.54062
1 24.9761 1.75806 5.85413
1 3.11328 -6.98743 0.241074
1 -28.7732 -6.45723 3.63714
2 -18.7913 -6.93306 3.73524
1 -11.3443 8.20262 -6.94903
2 -25.4424 9.51431 -1.24946
2 -14.4362 0.446277 5.51479
1 -29.1757 -2.38439 9.22253
1 2.84393 -0.128285 -5.2566
1 -27.825 0.606245 -8.59717
1 -17.5051 5.0215 1.81742
1 11.1477 -1.53459 -2.08899
1 15.9223 -2.84679 -5.43827
2 29.1762 -3.49068 8.47458
1 11.8509 -8.1094 8.79292
2 27.7886 -9.17905 -2.21996
2 1.23876 -9.29722 -0.988599
1 -19.285 7.2077 -4.34471
2 -28.7372 -7.456 2.60734
2 -13.1056 8.09984 -2.35512
1 12.8653 -6.37855 -6.44571
2 1.52484 8.47566 -0.204321
2 -7.01672 -7.91263 4.58333
2 -12.0598 -4.141 -6.75478
2 -24.1731 -9.22192 -3.60356
2 -2.24169 -5.37083 4.9007
2 -19.5255 3.36184 -0.0597838
2 -7.68874 2.31668 7.51132
1 19.1952 6.82109 -4.74469
2 -19.8179 -8.60906 -3.86784
1 -21.6002 0.906837 1.16395
2 19.9463 -9.73136 -4.97557
2 4.39063 -2.07424 -0.77708
2 -10.7019 7.5685 -9.83644
2 -17.3311 -6.60149 6.65656
2 -28.0442 1.45986 6.39577
1 -2.61433 4.5399 -5.57852
2 -4.6229 -1.91938 1.59245
2 -12.8454 1.57728 -6.11148
1 -7.10334 3.51917 -2.54353
2 -15.7217 -9.41595 0.0388294
2 -22.2565 2.33754 -3.56484
2 -12.7084 3.34034 -1.96016
1 -5.8482 3.68237 -7.87964
2 28.7308 2.17134 -1.04171
1 6.31625 -9.9065 3.50709
1 22.1608 6.66115 -9.26192
2 -25.2875 3.06914 7.86822
1 15.4046 8.35845 -3.60511
2 -14.7352 -7.93511 -0.222625
2 -21.5224 -3.82117 -0.517214
2 23.4679 -1.3032 -1.37529
1 12.2282 -1.67068 -0.86019
1 26.888 2.07612 2.72356
1 -29.7058 8.69651 8.25674
1 3.90336 6.43985 8.59035
1 2.15253 -1.73442 1.85638
2 16.2915 1.50687 9.66829
1 -19.1772 7.25882 -9.97533
1 12.2766 5.58821 0.98931
1 -28.2759 5.71511 9.78807
1 -25.4029 2.72771 -6.06125
2 12.5339 -6.06468 -9.14182
1 4.87095 7.36506 -6.38942
1 13.7529 -4.93407 8.64575
1 25.662 1.54722 9.28344
2 -1.90723 -2.85718 -9.1584
2 -19.7228 -9.83338 4.53948
1 21.7782 7.1751 -6.51737
2 -28.9128 -8.21225 -5.8985
2 -21.5445 0.221514 8.85215
1 -10.8014 -8.5115 9.65152
1 27.7962 -3.08743 2.23169
1 20.5179 -6.70453 9.77756
2 18.8629 -6.10624 6.32399
1 11.9246 -9.25209 9.9395
2 1.39683 2.20911 -7.09791
2 -13.9783 -7.38773 -9.0323
2 8.63485 0.777651 5.98643
1 6.21645 6.94783 6.92754
2 -21.7024 5.55017 6.46258
1 12.5578 -3.57788 0.483357
2 16.2534 8.9578 -6.86641
1 -10.1532 8.53226 0.212393
1 5.60451 0.373897 2.87888
1 27.1295 7.00856 4.09098
1 17.4246 1.67784 2.41175
1 4.09778 1.32105 0.325935
1 29.5266 1.14953 -0.278367
2 24.4633 -9.65857 -0.206547
2 -18.7892 5.2401 9.05353
2 -25.9372 2.92598 -8.2979
1 26.6317 8.42835 -4.18546
2 -21.398 7.25475 -5.40697
1 23.6245 -6.17156 -6.21583
1 25.6327 -5.12889 -3.60966
1 -29.2222 -2.98612 3.71128
2 -11.7539 -2.03558 7.69797
1 10.0568 -3.38269 9.45371
2 -22.6482 -2.51142 6.46227
1 13.1988 4.90828 8.99756
2 4.34703 4.42155 -8.70345
2 -20.4719 -5.16605 -8.22029
1 6.60634 0.213186 -8.1457
1 8.95232 6.06634 -8.96747
1 -22.3666 -4.31392 7.68141
1 -8.06427 -9.83185 -3.45835
1 3.69434 -4.43225 -0.461476
1 -14.0758 9.80371 9.65642
1 15.053 -1.99783 -1.08201
1 24.5771 -6.65586 1.51869
2 3.03872 5.93907 -5.94219
1 7.81483 -7.48463 4.18034
2 -23.6358 -4.07931 5.34741
2 -18.2717 -7.18762 7.12604
2 3.25648 -0.273796 4.60454
2 -6.94475 -5.38127 3.72309
1 6.14013 0.899025 5.7194
2 14.0657 7.76534 4.43125
2 -20.8303 -8.48992 7.06931
2 -18.478 8.7875 7.51381
2 18.4554 4.27493 -7.3413
1 -0.21679 -6.12674 5.39037
1 27.6865 9.85581 -1.40722
1 15.788 -2.4738 8.18394
1 -1.48254 -3.77026 8.48742
2 14.025 4.21957 -3.66223
2 5.76623 -0.475956 -8.16589
1 17.219 -6.16571 4.86638
2 -28.1808 3.34495 0.402911
1 -11.1734 -2.05824 -2.01398
1 -8.92197 -9.05271 -5.77655
1 2.72206 -8.61625 9.77665
1 6.15926 -8.827 4.34711
1 11.4879 6.19247 -3.22604
2 -11.2771 -7.0251 -2.03906
1 12.0048 4.18165 4.83625
2 -14.8313 4.49946 -8.16904
2 -20.9738 -5.99417 7.78822
1 17.1708 -3.6143 -6.71615
1 9.04849 0.713541 9.84268
2 -18.7262 2.19771 2.0056
1 11.9594 7.07918 -7.0287
2 -18.9784 -9.29041 -8.28262
2 -11.9425 -2.9973 -6.59243
2 26.9446 -9.32409 -3.84119
2 -22.2709 8.8297 3.79763
2 -15.3594 -8.94141 -0.755597
2 -22.6833 9.31273 -6.82561
2 -18.7568 -0.869786 2.11508
1 25.2884 -6.04637 -7.19586
2 -8.32597 4.31407 -1.07394
1 -16.412 -1.1822 6.94778
2 -12.4682 -6.88945 6.60698
1 24.0945 -7.6186 9.63647
1 -16.4069 8.9745 -5.7609
1 0.177573 -0.118047 -6.50795
2 29.3273 0.0667053 0.0618923
1 21.7257 2.05595 -5.273
1 -0.118045 -9.63731 3.80748
1 -8.01628 -3.11503 -8.65001
1 21.2507 8.63024 -2.50152
2 -9.27131 6.14011 -6.97544
2 17.014 0.675315 -4.24265
2 -8.40552 1.37052 9.94949
1 -23.9312 -3.36617 6.19739
1 -22.6125 -3.24295 8.4057
1 2.29483 -9.97983 -4.7625
1 10.9767 -5.82221 -0.125882
2 -0.10034 -9.25948 -2.43985
2 -16.2629 3.68361 6.98878
1 22.3786 3.01714 -3.36016
2 2.65786 0.82717 -0.933609
2 14.9732 2.45422 -4.55995
1 12.4236 5.4059 8.24678
1 15.5087 5.60906 -8.51264
1 17.2829 -7.03225 -6.14221
1 18.1507 -4.51994 3.20535
1 -14.0181 0.419639 3.29002
2 -27.7473 -6.90152 -0.379453
2 -20.5452 1.14403 1.96024
1 -21.4256 5.58202 -9.29118
1 15.9473 -4.02833 2.10656
1 -6.50319 5.24912 -6.11716
2 26.1449 5.61382 3.89999
2 -6.59732 -5.66672 -1.68637
1 7.96612 -6.10829 9.8491
1 25.4177 2.11648 1.15809
2 28.0478 8.4161 8.61686
2 -10.0965 9.2506 9.57898
1 12.4324 2.21858 9.55337
1 0.884755 -8.52643 -4.18924
2 29.28 7.54829 4.06472
1 5.61452 9.44991 -1.86188
1 -2.89744 -9.91952 -0.957375
2 24.5036 -9.93848 -7.70918
2 -18.5558 -4.72496 -0.631515
2 -17.8945 3.68842 2.10198
1 16.6736 1.82513 -7.86464
2 25.464 -3.0934 -1.53555
1 4.55994 -5.45279 8.38823
2 14.3198 2.05567 7.1545
1 0.776308 8.66008 -9.50738
1 6.07703 -8.32982 -2.49083
2 -21.9738 -1.03389 -6.55875
1 -24.2451 4.51093 -2.71156
1 -26.9501 -9.03587 4.16312
1 -26.3766 -0.423136 9.4869
2 -27.968 -2.60594 -7.70565
1 5.16942 -4.31811 -0.756433
1 24.7804 -1.17403 -5.33927
1 17.9742 4.77403 -3.97369
1 -22.6725 -5.45229 -4.83773
2 -9.03531 -6.49876 -4.71745
2 4.28686 5.45505 -0.506904
1 15.1824 -7.50504 -4.4734
2 -19.5449 8.03999 -9.0955
1 22.5682 1.27091 -0.621248
1 8.90801 -4.71699 -2.97549
1 5.40898 2.42686 0.615649
2 -20.9987 -3.63674 1.09053
1 0.870454 9.87682 5.95906
2 19.2598 5.39344 -8.82175
1 -16.0713 -8.67892 3.91769
2 -8.23247 -5.49543 -6.25351
1 12.95 -9.16604 -3.60754
2 -4.88741 3.73905 4.38578
1 11.2481 9.25495 -2.49168
1 26.354 9.13506 0.0665365
2 10.0154 5.06998 -3.34297
1 -2.65884 8.80386 0.80375
1 17.7797 -8.05931 5.13768
2 -19.7347 5.94545 8.94062
2 -10.1392 -7.34033 7.30124
2 -14.2984 -9.60002 -5.21711
1 12.6087 -7.27971 -7.26466
1 -21.4202 3.67345 2.06557
1 26.8441 -3.75322 -0.670114
2 -1.63818 2.23658 -8.56738
1 6.39881 -5.93148 3.93627
1 14.531 -8.27782 5.51568
2 9.71719 -0.54747 -2.47433
1 21.0765 4.8625 -1.43253
1 6.9577 -0.106498 -9.94864
1 -28.8903 1.92739 -1.46875
1 -18.6507 8.45418 9.90494
2 -13.007 3.34699 1.65461
2 7.48408 7.05717 6.13722
1 5.71054 5.85458 1.79195
1 4.28894 -4.75635 7.70536
2 -15.5587 -1.61054 -7.08345
1 15.4762 8.68725 -8.06282
2 -6.10657 -7.37995 8.83349
2 11.0881 2.92935 -7.01782
2 -15.0757 9.06206 7.93899
1 28.027 -5.24231 7.02066
2 -29.3543 3.70968 -9.43292
2 28.4443 -4.78173 2.42834
2 -7.10496 -4.35379 -8.10681
2 -13.3083 6.46089 -2.55607
2 -24.2963 2.87078 1.55324
2 -12.7954 4.84378 0.226862
1 22.3799 5.87245 7.04484
1 -25.8743 -5.63683 7.11826
2 -27.5407 4.06293 -8.67406
2 3.42784 5.20247 2.99086
1 21.0368 -7.13445 0.0808085
2 -29.8312 8.95605 -8.9445
2 7.03602 1.12725 2.70597
1 -28.8283 0.193558 -6.70459
2 -23.2278 -8.35371 6.52349
1 19.285 3.84405 -8.6851
1 19.3832 -9.53195 9.84327
2 -23.446 -1.50973 -3.66835
1 -1.03125 6.37052 5.86474
1 28.5061 -3.53979 9.96217
2 -3.09855 3.65731 -5.47272
2 -2.724 -1.94646 8.515
1 26.8756 0.704976 -0.26538
1 12.8075 6.22141 -2.93467
1 -26.1175 -4.26443 -5.5536
1 19.1857 4.4467 3.25641
2 -10.3537 8.98564 -5.83103
1 14.941 -6.27309 4.16746
2 -26.9889 -9.87735 -3.00095
1 22.9222 4.97453 5.32963
2 -21.2928 -1.89978 0.630342
1 28.8492 2.84557 7.21092
2 25.1193 -0.704045 2.0599
2 -22.0991 7.7727 0.932083
2 28.4541 -7.9128 -7.42127
1 22.8981 -4.3815 5.27449
2 24.1015 7.34115 -7.85179
2 1.72059 -9.90885 3.7341
1 -22.5025 -4.18745 -2.2615
2 -2.6799 2.70495 -5.62793
1 -1.19174 -3.04597 0.331387
1 -3.18792 -3.62673 -0.205225
2 -21.0536 7.658 -6.9634
1 -3.81721 -8.54007 -0.597825
2 -10.4935 2.58011 7.77077
2 10.5084 9.27338 -5.64762
2 -12.2041 5.46396 7.1245
1 14.5402 6.7165 -7.28005
2 -24.5658 -2.31535 0.35942
1 -22.9478 -9.13542 4.54018
2 -7.06377 9.02412 6.00337
1 -14.4475 9.11209 5.16985
1 11.6151 5.80387 1.67256
1 -27.6983 0.210777 5.82956
2 -29.3453 -3.01367 -9.93271
1 -4.75207 0.951994 0.0952576
2 -16.8493 -9.77037 3.21558
2 -13.0937 7.49012 9.51256
2 6.59269 -8.18614 -9.60194
2 -23.4542 -7.81001 -0.412201
2 -7.64915 -3.63298 -4.84464
1 11.0976 -2.33665 9.23246
2 17.3987 -2.85553 -5.64967
1 -7.77465 9.75457 -2.17619
1 14.5612 0.427115 -8.83636
2 -18.5256 5.83816 -6.17891
1 8.02645 1.00764 8.35044
2 -13.0347 9.61225 -0.159998
1 18.8234 0.683357 9.74822
2 -9.8752 -5.92514 4.48339
1 -11.0979 -5.41322 8.58311
2 26.0371 -5.85502 -1.41642
2 27.5341 -3.88429 -2.76194
1 11.3339 -5.13643 -2.48794
1 16.3788 0.575728 -8.66561
1 27.4984 2.01248 -4.41955
2 8.2753 5.96762 -3.45761
2 12.9274 -5.7947 6.74696
2 19.5994 9.71002 6.03371
1 9.41628 -2.05457 -6.86876
1 1.65992 -1.77565 7.285
1 20.7544 -1.2117 -4.35991
2 22.7462 2.6288 3.38376
2 -3.37527 8.05428 3.97315
1 7.98984 1.93099 6.03133
1 -23.5475 -1.42889 -0.535092
1 -1.18347 -3.194 -7.84808
2 11.8451 0.201008 8.72387
2 -15.5211 -5.3452 -8.1379
1 -0.897985 5.5697 -1.20559
2 -17.7154 -0.833953 -8.70218
1 15.8989 -3.46469 -3.70345
1 11.4111 5.45283 -7.72237
2 18.8821 -0.274108 7.88213
1 1.85804 -5.95559 -7.9876
1 10.5387 1.92043 6.33656
1 -0.856366 8.47688 2.05217
2 -9.34574 -8.31119 2.09948
1 23.0618 0.546742 -7.89254
1 -14.6381 4.41456 -2.77695
1 9.07147 2.6392 -5.72007
1 -9.90589 3.81709 -3.02002
2 26.4875 1.86962 -7.36662
2 -12.565 -8.92135 2.61388
2 -11.0455 -1.848 -3.09354
1 0.0810871 -0.427442 -4.60342
1 -26.9345 5.47409 5.67821
1 -26.5883 -2.75121 4.91388
2 -7.99309 5.0524 1.82508
2 6.28211 -2.38756 -0.451615
1 20.6276 -4.54146 -1.26971
1 8.41718 7.09753 -1.26419
1 13.8451 -8.46961 4.30071
1 6.44248 -6.15727 0.152152
2 -26.9986 2.9377 2.52332
2 -18.0317 8.52797 -7.63399
2 17.5467 9.10562 -8.02956
1 27.719 -2.6854 -3.03616
1 10.6314 -1.35035 8.19485
2 -0.23727 0.899962 7.253
2 3.63615 2.79923 5.79523
2 -14.038 0.234904 -6.56363
1 13.0318 1.49009 4.11423
1 -28.4313 2.43383 -0.279012
2 0.856583 -3.37805 -7.70332
1 -8.62893 -3.78474 -0.527327
1 11.4996 9.44376 -1.29378
2 1.99689 3.04367 8.1073
2 14.9133 3.8549 6.64136
2 25.8518 9.2069 -6.96314
2 18.5788 -8.71101 -1.13247
1 10.0707 5.2541 8.19952
1 -15.2361 0.609307 3.07219
1 22.5867 5.1237 -9.86269
2 -19.4329 -9.29759 8.28185
2 -4.7577 4.36709 -4.1203
2 -23.6878 9.697 3.99094
2 28.1509 0.488291 0.283272
2 -10.219 -6.09603 3.12007
2 -21.8281 -6.38409 4.24331
1 20.6663 8.46634 -3.564
2 -29.0324 5.57575 -0.669965
1 4.24272 -1.82038 -8.4435
1 14.5547 -5.12788 5.90733
1 0.0192946 0.115913 -0.321548
1 -18.872 -0.0978914 -6.44198
1 14.5851 -0.377761 5.58033
2 -16.9581 -6.33666 -0.322398
2 2.73501 -2.57241 2.26718
1 -29.5954 -3.44731 -7.3667
1 13.3451 -7.02569 4.8407
1 18.5816 0.180965 2.78274
1 8.4747 -0.923135 -1.84421
1 0.256477 -7.31898 1.81281
1 2.09205 4.60755 2.23513
2 -18.5502 4.08946 0.208962
2 -7.29621 8.98312 -4.44975
2 -20.9542 -9.83405 -2.17264
2 -10.2092 -7.73584 5.90182
2 -0.441364 -3.57436 -9.541
1 -24.8773 -6.33162 0.359739
1 12.2147 -9.82774 -5.97665
1 4.6796 -2.92448 6.04525
2 -4.12284 -8.83346 -9.99936
1 14.1859 1.77655 -8.05778
2 -25.8106 -1.22696 -2.67812
1 29.472 9.5647 -5.23467
1 22.3812 5.92333 9.29551
1 -2.37785 5.36748 -2.65884
2 -5.38632 -9.01796 -5.8469
2 -24.2617 -3.48274 -0.545583
2 -1.50226 -8.05227 7.62627
1 21.5346 -8.77147 7.2973
2 -5.06272 -3.766 8.00626
2 9.55731 0.555855 7.65071
2 -7.35767 -3.96641 -9.16908
1 14.4825 2.70605 1.87876
2 27.8399 -5.66517 8.96079
2 -19.1097 6.98471 8.28497
2 12.6898 -7.60072 6.33215
1 12.113 5.58847 3.5105
2 -14.6552 6.77433 -2.06751
2 -16.4932 -0.112465 -8.29261
2 27.879 6.04423 3.58205
1 7.78236 0.676745 9.23935
1 -12.8142 -7.71634 2.72006
2 24.4194 -4.93578 9.98856
1 2.03889 1.6604 2.386
1 -9.32043 8.19321 8.39451
1 -16.9572 7.43717 -1.99093
2 -25.6482 9.55431 8.63415
2 -8.83381 9.3446 -9.564
2 -9.88683 -4.64535 -0.851364
2 26.7263 -2.7878 5.27687
1 -28.7684 7.55038 0.00250654
1 -2.03661 6.22918 -7.14794
1 12.9301 7.51863 9.19283
1 -11.7666 9.16846 -8.46376
1 -0.178467 -3.59668 7.19193
1 0.951458 -5.65077 1.0457
1 21.0177 -7.60681 2.03575
2 -29.2698 -8.11688 -0.136668
1 -3.98826 8.15988 8.57366
1 -24.5591 -2.46163 -6.05878
2 -6.44151 -7.98068 2.55106
1 14.4754 8.62378 7.85183
1 3.77197 0.129922 -4.88385
1 18.5097 8.18881 6.23282
1 -5.54992 -3.07548 -1.29454
2 -10.2204 -1.02198 2.99915
2 12.8892 7.71316 3.56085
2 -18.0571 6.38919 8.32943
2 -5.00958 -2.17284 4.08021
2 -0.648189 2.35893 5.44132
2 6.6936 -6.47522 8.73131
2 -6.75874 5.05239 -0.947439
1 5.86248 2.74758 9.69795
1 1.86961 -0.0714905 -0.00448737
1 26.6013 -5.18964 -9.05045
1 -5.28189 -1.16207 -7.51314
1 7.328 -9.84229 7.6526
2 -19.7841 9.61382 -3.28837
1 -13.5071 9.16988 8.68921
1 -7.61454 9.38547 -6.54052
2 28.0205 -7.89898 5.6647
1 27.1802 0.261877 5.97396
1 -8.15466 9.85904 1.62829
1 26.9518 -5.48873 5.32527
2 -2.07876 3.60152 8.34254
1 11.5335 -9.88664 -8.12968
1 -6.35392 1.5939 -1.55178
1 25.0195 5.9549 1.61752
2 -12.29 2.71344 -9.61322
1 -28.5505 -7.33914 4.81881
1 6.84447 1.68601 9.92955
1 7.31434 -5.56634 4.57637
1 0.0726943 -1.3185 -7.90652
1 20.2629 9.65084 -7.35425
2 -22.35 2.67982 -5.84383
2 -28.8386 -2.93756 -4.40179
2 17.8292 0.690812 3.33731
2 -6.03147 5.1902 -3.48657
2 -27.7518 -3.48828 -6.27856
2 -16.1333 -2.8864 0.999831
1 1.01104 -8.145 1.3443
1 -21.8485 4.75516 8.30514
1 23.0986 8.87869 -4.03092
1 14.5033 9.05391 2.47636
2 -14.3736 -3.05276 0.209678
2 9.63794 5.35839 9.36789
2 -18.772 9.09726 1.77832
1 -18.5057 3.84495 4.071
2 -21.9157 -8.18018 -2.29125
1 18.3759 8.44614 7.38802
1 1.13693 -0.958254 -6.7845
1 15.9074 1.13266 -7.49099
2 -10.5641 -8.24682 -7.30419
1 -5.02529 -7.24207 1.74912
1 18.228 -5.74331 -1.93529
1 0.108674 4.3481 8.77914
1 -1.02958 9.89242 -6.00634
1 22.7132 -1.02395 -6.2841
1 18.6067 3.10931 -0.705772
2 -7.30545 0.295263 5.21053
1 28.8945 -1.931 -9.54867
1 27.4936 -1.61865 7.33956
2 -23.4808 -9.16064 9.56371
2 27.3023 -9.1372 7.24148
2 20.6549 -5.40358 9.23547
1 -12.0092 7.37384 8.31483
2 -11.7783 -1.76039 -6.24588
1 -8.02149 -8.3398 9.13902
1 -21.4079 8.61593 0.820553
1 11.5216 -4.41338 -1.05914
1 24.4826 -9.51884 -3.40753
1 -24.3812 6.223 0.892771
1 19.8798 -1.75682 -5.49708
2 13.4275 8.22977 -3.96873
1 -27.8481 1.93419 -7.73063
1 -20.6406 -2.95784 8.53136
2 -26.1661 -7.07863 0.422464
1 -17.9467 -7.53308 2.88868
1 29.7261 9.12231 0.021192
1 11.8442 -2.31757 -3.9215
1 0.282763 7.4107 -0.399063
2 27.8819 -1.87578 -7.74143
1 13.889 6.61995 7.29084
1 8.40861 9.20559 4.13594
1 -11.4053 -6.02237 -3.97228
2 -20.8411 -3.36853 -5.61351
1 0.711844 -8.21335 5.83689
1 -4.69911 5.65363 5.76359
2 -7.49314 -0.061104 8.68652
1 26.8258 3.81467 -9.47112
1 -23.1439 -7.92814 0.988841
2 16.7356 6.58836 7.98503
1 3.73294 -7.03571 8.59959
2 -24.8247 4.8416 -3.54283
2 -5.30921 7.46663 9.11807
2 -2.15894 9.90961 -9.71798
1 21.2645 -5.18283 7.69837
1 -9.62853 -1.57222 4.36671
1 21.219 -2.79143 4.0253
1 11.5147 -7.09397 -5.34075
1 -27.6347 -2.06008 -5.23968
2 -27.9306 -1.42083 4.81339
1 0.0148867 -3.30912 -3.21915
1 3.64789 -5.34282 -3.61779
1 10.9886 -0.414645 9.65416
2 -5.60479 -2.42697 -8.15632
2 -1.59889 7.48127 2.77792
2 -4.62195 -8.81908 7.48198
1 3.44237 -9.29756 4.8726
2 -16.25 1.43685 -1.17099
2 11.089 -1.35748 6.46675
1 13.4397 -7.7577 -1.93126
2 17.1855 -2.44041 2.98785
1 18.1446 -6.31171 5.58369
2 -13.7295 7.06112 2.10885
1 20.4807 6.55937 -0.166204
2 -10.432 -9.16855 -9.23766
1 0.55545 8.63229 -1.67191
2 21.0313 2.32576 3.14625
2 -22.4394 3.98019 -9.58311
1 16.337 -5.95874 -4.39041
1 -8.44089 9.99399 -6.76645
2 -7.04363 7.16832 -1.70219
2 21.8288 -8.35441 -6.95406
2 -14.2194 -5.03839 5.31427
1 -8.49668 -3.03453 -3.93923
1 -26.31 6.66499 -8.27771
1 29.204 -2.50423 0.102745
2 0.162897 1.97809 1.39607
2 25.1721 -7.40141 -9.88639
1 15.7534 3.76423 3.1403
1 21.7616 -1.20401 0.373693
1 -21.4723 -4.18006 9.88042
2 -16.3179 1.59602 9.39279
2 -14.1045 -8.69571 -4.80834
2 23.6362 2.56643 -5.50344
1 21.8566 -2.77347 -7.38037
1 21.615 1.41509 -4.05223
1 -27.2632 1.28088 5.64419
1 -0.475589 -5.63436 -2.97326
1 12.4606 -8.53149 7.65187
2 -4.96898 -9.42827 9.41052
1 28.0087 0.164074 1.74359
1 28.2062 3.612 -5.57338
2 2.68022 9.8565 -0.193408
1 -15.2649 3.11332 3.63441
2 -2.99697 -8.24099 -3.89166
2 0.0824571 0.15314 9.46979
1 22.4615 3.20214 0.442896
2 23.9529 0.0271888 -4.39986
2 -29.4929 -0.876123 6.4099
2 -14.6155 -6.59678 0.681069
2 -25.3786 -1.93866 2.48505
2 -22.3954 3.76896 -5.6544
2 -10.3779 -6.07294 -1.88579
1 18.2418 -9.27971 9.80668
1 6.3419 -5.14738 0.00569518
1 12.5872 3.2303 -2.74332
1 13.5501 0.500906 8.34748
1 -12.1726 -0.605677 1.96895
1 21.3497 5.83407 5.87222
1 -26.6456 0.92378 7.17354
2 -22.3904 0.545651 6.50557
1 7.09584 -1.71601 -9.65119
1 3.05798 -4.28507 3.39894
1 2.65177 6.3281 -1.70481
1 26.6456 -1.81024 6.62816
2 -13.2817 -4.78944 -5.07514
2 -28.6695 1.18144 7.65165
1 -0.0967178 -2.86489 -7.62259
2 -4.81217 -4.72845 -3.93412
2 27.2853 -7.58408 9.28236
1 1.25617 9.67828 -0.411482
1 14.7159 8.14155 2.93477
1 23.2975 -0.180023 -6.80035
2 -14.089 -2.92047 -4.01849
2 -8.15705 -7.53578 0.945954
1 26.3521 -7.73846 -7.49196
2 5.8679 -8.64152 -4.58176
2 28.0961 -2.87354 5.00833
1 28.8966 -4.90576 -6.02648
2 -22.7465 -3.6683 -4.99331
2 -14.7533 8.84781 6.94559
1 4.57663 -6.60956 3.34456
1 -5.2823 0.478818 -6.1845
2 -9.75088 -8.22267 -3.89348
1 24.0875 -2.47719 1.09577
1 -8.012 1.95876 6.48118
1 21.28 3.58865 -3.61851
2 -20.8219 -8.89188 -8.70447
1 4.22188 9.15742 3.02342
1 -4.83635 9.92192 -0.73609
2 -10.0941 4.73402 5.95535
2 -21.0576 -0.0523324 2.04829
2 23.2979 5.04951 8.69603
1 -1.53158 6.641 3.82014
2 -15.6884 9.16767 5.51319
1 -7.32047 -2.60909 -4.73164
1 15.7009 -4.93096 -7.03909
2 -14.3093 2.07202 -3.10234
2 1.93686 6.83925 6.67824
1 3.63479 4.081 7.61129
1 8.75385 -5.61747 -2.39379
1 -16.1409 -3.37299 9.27412
1 -21.187 -9.23134 5.09221
1 -8.26863 -4.65052 -3.75549
2 0.495571 0.449164 -1.98012
2 16.4728 4.54798 7.38156
2 26.1758 6.39058 -9.98986
2 -28.5056 -2.3177 -0.888039
1 -15.2683 0.618579 6.4913
1 27.4611 -1.00985 3.63851
2 -9.61517 5.92296 4.1428
2 17.3543 2.02163 4.83381
2 -20.9182 4.60701 -2.9058
1 -29.7338 3.37797 2.16067
1 15.331 -8.31203 4.862
1 -29.4374 -1.08398 -6.15804
1 -10.056 1.24328 -8.61261
2 -2.05742 -3.06024 -3.87752
2 -27.1462 -3.65859 3.31438
1 -15.154 -2.86976 3.84579
1 -10.9268 -2.25693 -8.77132
1 26.5837 -9.07805 5.7335
1 4.40718 -7.56114 4.03866
1 -26.1666 -9.18787 -8.92816
2 5.58805 0.796028 4.08393
2 -4.2895 -5.08449 -0.901137
2 -1.19277 3.14665 0.125955
2 27.8638 -5.13957 -3.29341
2 10.0787 -9.35906 1.82775
1 12.6807 -5.92287 8.16285
2 9.91099 4.56351 3.37464
2 -1.98328 0.396517 5.57315
2 24.9928 5.98316 -1.61442
2 -29.3004 -0.249401 9.97324
1 17.9446 -9.17982 4.46881
2 -21.4389 -3.68321 8.61617
2 -13.4229 -0.0958925 -8.30548
2 23.0034 -0.967327 7.54837
2 -16.3976 -5.28227 -2.73906
1 24.0783 0.963639 4.97946
1 -7.44142 -2.21044 2.21055
2 -9.03286 -8.02151 5.60636
2 -8.79689 -9.35228 -2.79935
2 -8.11216 -4.50501 7.92433
2 -3.96718 4.23272 -1.1475
2 -26.725 -8.31117 -9.82714
1 24.5022 1.61519 0.569191
1 16.3055 9.68557 -6.03283
1 21.304 1.00995 2.99828
1 -14.3187 -5.80464 -8.27458
2 -21.576 -9.28134 9.86058
2 23.9095 3.47894 -6.55827
2 -14.7439 -1.48881 7.27158
2 -4.37743 6.77561 6.92703
1 26.1714 -7.67965 -5.69087
1 18.0477 2.03179 7.57104
2 -17.9985 0.128255 -4.73307
2 -15.948 8.17116 7.46211
1 28.1975 -0.884635 -1.15456
1 19.7989 4.93762 0.161789
1 0.361323 -5.88856 -5.80898
1 -10.5604 6.04386 -1.59167
1 -27.2686 -9.56052 0.450726
1 -14.2039 2.92067 1.53223
2 -29.0608 8.01275 1.08524
1 -0.40433 5.09423 -6.99486
1 -29.9261 6.03185 -6.5858
2 11.7722 -3.45196 -2.98922
2 -17.4007 -9.1257 -7.14872
1 -4.98391 7.84143 -5.41369
1 3.25483 8.1417 -5.05007
1 -29.292 9.61415 -1.17157
2 -1.24225 8.96293 9.46525
2 17.2488 6.85646 -3.04429
2 0.264055 9.20131 -4.09877
1 18.5384 -6.58607 0.459884
1 -26.2637 7.47783 -1.88854
1 3.47937 -3.05532 5.68293
2 -25.5155 6.42908 -6.23996
2 -11.4125 -8.27595 -0.795494
2 -19.4226 -1.93018 -9.12592
1 -12.2641 3.00468 3.47124
1 -4.41238 0.223048 -8.21543
1 -24.1629 7.40863 -3.03831
2 -19.9409 3.66616 8.23327
2 -5.85104 4.44795 -1.83674
2 -4.9051 -8.29922 -7.33728
2 18.025 8.16615 8.23735
1 14.1381 9.94603 1.93912
1 12.0975 -9.12148 6.03479
1 7.13272 4.44975 8.61333
1 10.1656 7.53395 7.45896
1 20.905 2.06735 6.56111
2 -19.904 -6.30925 3.99928
2 12.8515 -0.361273 -1.73665
1 -0.788476 -3.15708 1.92126
2 -4.88429 -7.30112 -9.98297
2 -17.2749 -9.36424 6.96791
2 -25.2291 8.15975 8.05321
1 -7.46247 -4.74645 -6.52735
1 -8.02366 -7.24536 -8.44081
2 -3.9961 3.48747 6.28408
1 -28.3298 7.35258 -5.71613
2 -21.5385 -7.05407 1.71488
1 1.00156 -1.3755 -9.76158
2 -19.69 8.62328 -3.51351
1 8.45739 5.57579 -7.28772
1 -23.8781 -3.76934 9.06615
2 -16.4517 -6.97059 4.36104
1 -28.0428 -6.39099 -6.36982
1 11.0965 -8.56084 -3.81257
2 6.1876 5.8192 -0.834753
1 26.5513 -6.93608 7.79063
1 -1.29782 -7.83941 -3.70632
2 -14.3195 -5.56901 0.771364
1 -4.67353 -6.11827 -7.58931
2 -4.62037 -1.09524 -2.20528
2 -28.9053 6.59678 5.07206
2 -13.5119 -3.00668 5.45739
2 29.366 3.20563 9.92399
2 -24.7379 -3.94801 1.95309
1 8.25629 -2.93164 4.55848
2 1.11759 -0.573341 3.25791
2 -20.7827 3.80118 -4.21185
2 -16.2956 -1.22935 8.05152
2 -27.5468 1.85475 -1.15748
2 22.8349 -1.43954 -0.317902
2 -12.9497 9.89038 -9.36588
2 -4.0981 7.16927 -7.91534
1 1.01584 -4.88415 -2.78777
1 10.6062 9.8167 -6.97946
1 -3.68642 1.21226 -1.96537
2 10.8423 -2.94857 0.929576
1 22.2285 9.96724 2.25353
2 9.58745 -9.56437 -0.408337
1 -27.0029 -8.19386 5.92571
1 13.8721 3.08247 -4.5011
1 -16.6736 0.570934 6.95791
2 11.8058 -6.86331 6.30224
1 25.0263 0.476592 3.96084
1 -6.62548 9.5166 2.81828
2 -29.7607 0.0799229 -1.00227
2 -4.45733 -9.09903 3.82302
1 7.11195 5.49385 7.15403
1 -1.76962 -4.75103 -7.73859
1 16.2206 8.24624 -5.64051
2 5.37397 -0.621376 4.96037
2 15.8082 5.82121 0.803685
1 -9.44685 -2.47706 6.03487
2 -8.7247 9.3768 4.43274
2 -4.76759 6.10157 9.05007
2 27.0383 5.96917 6.46845
1 8.96319 -3.06319 2.97451
1 -29.0576 5.5403 -2.76655
2 -22.4263 -8.68408 -3.19891
1 3.75606 0.879287 4.15843
1 -25.7066 7.80238 -0.257732
1 23.7718 -5.29509 2.53621
2 16.5695 -9.78661 6.1525
1 13.6911 4.07914 -0.905727
1 5.87576 9.13284 -8.05163
2 -28.2248 -9.5985 1.63194
2 16.485 -7.10013 -9.13398
2 -0.0550301 -6.66104 -8.47517
2 29.6355 0.555639 7.04436
1 0.526845 6.38034 -0.710894
1 -9.22193 -8.46587 -9.82022
1 28.7011 -4.74714 -2.89722
2 10.928 -9.10722 -2.79982
2 -11.023 4.14201 -1.47403
1 -12.9782 2.0514 -8.45049
2 5.81749 -2.78576 7.23464
2 5.34751 2.14504 7.64364
2 -20.1327 4.8471 4.4342
2 -12.6621 4.23773 2.32536
2 9.46058 -9.72846 -3.4502
2 -10.4211 1.10744 6.9927
1 26.3002 9.28591 -9.53003
1 28.0458 5.64604 -6.7606
1 1.22816 -3.99973 -5.94857
1 7.37834 6.56662 4.73741
1 21.6054 5.00719 9.95509
1 -10.0516 1.14826 0.434335
1 12.4503 1.00256 -3.36161
2 -28.0456 8.34897 7.22483
1 19.6809 2.74955 -2.80858
1 15.5015 -8.96897 -1.61954
1 -14.9801 3.93483 -9.28225
1 -6.17287 8.9993 -3.27819
1 16.7086 -6.32939 0.118193
1 -4.31931 -9.37581 -2.68804
2 -12.9889 -8.05191 4.13253
2 19.7095 -8.20391 -1.10284
2 -6.87723 -1.89343 0.69723
1 -26.9989 -0.487347 -7.92569
2 -18.2536 -7.75959 5.95636
1 28.2624 -7.8387 -3.17605
2 -2.71156 -2.24154 0.0657901
1 -19.4237 -4.13362 -9.99927
1 -0.496907 -7.43651 0.981044
1 11.1853 -2.60182 1.92507
1 13.773 7.86523 -0.272784
2 21.7882 9.54301 -1.59005
2 10.8295 -4.7849 -0.372335
2 -15.6629 -3.47037 -1.55583
2 -5.00161 -6.64181 -5.25438
1 20.037 0.981686 9.42024
1 -25.9955 1.92843 6.09998
2 -19.1046 6.79839 6.57936
2 11.8878 -3.80748 9.92579
2 18.934 -0.327935 -9.79669
2 9.09711 -5.86707 9.79287
2 25.7073 -2.43793 5.06246
2 -13.9612 -4.28682 -3.41293
2 10.6139 -5.0998 2.28379
1 29.1095 8.34745 -9.05437
2 1.40059 -7.23433 0.246374
2 11.2198 2.21614 -1.41393
2 -28.4214 3.05314 9.04476
1 23.1869 9.62829 -3.20783
2 -11.7909 6.57747 3.49057
2 24.2669 3.21034 -1.22594
1 -25.0477 4.11482 8.28668
2 -25.2806 -7.73261 -1.53752
1 -9.6376 7.71992 -6.94823
1 22.228 7.01618 7.20907
1 29.785 -4.80844 -3.0056
1 19.5162 1.65379 -9.80137
2 19.2278 -9.96559 0.728581
1 22.8904 -7.64073 -9.41971
1 28.3417 -3.57019 0.235704
1 3.85406 2.02269 -2.39424
1 28.7155 4.55342 7.22179
2 25.7088 -4.12918 -0.612101
2 -8.95326 4.68445 3.91219
1 -28.6052 -8.51827 7.12213
1 6.56989 4.06378 -6.27284
1 -3.571 5.08899 6.37046
2 5.3027 -1.87238 2.03456
2 10.0434 0.652712 9.98794
1 -17.5168 -3.8954 -8.32641
1 -8.26554 -8.29601 2.85477
1 7.07979 0.0953598 1.9793
2 0.220926 -3.27372 2.09613
1 -19.763 -6.61472 -8.83437
2 24.8241 -9.51145 2.18953
1 1.54963 -8.89593 1.1652
1 18.7882 4.5156 -5.64463
1 -0.233966 -2.57964 -9.2167
1 23.2846 -6.43878 6.3343
1 8.34995 -6.92882 6.63446
2 -18.5928 -4.1973 -2.89136
1 -8.02543 -4.83893 4.84382
2 6.94247 6.9886 -0.0355464
1 -28.9605 8.83296 5.59285
2 24.0457 -5.26776 -7.44584
2 -15.7398 -9.40922 9.38699
1 9.96389 -1.80271 -8.76118
1 11.0327 -8.00167 -8.51488
2 28.9111 9.85482 0.156853
1 23.4458 6.40562 0.407897
1 10.5676 1.51166 3.60256
1 -14.2778 1.38048 0.777298
1 -5.87485 -8.55634 4.87298
1 -28.7265 5.03296 -4.54844
1 -13.3897 -6.87303 7.6896
1 -26.5343 4.16155 -4.97649
1 9.6682 -4.96611 -1.55271
2 6.31515 -7.15376 -9.53957
1 10.5064 4.23064 7.5519
2 -13.237 -6.48284 4.08862
1 20.1104 -6.94901 8.43899
2 -17.1491 2.08268 1.68728
1 22.9014 3.08184 1.8319
2 -11.6113 0.480799 6.64795
1 24.3445 9.57448 7.54139
1 7.86375 0.830012 -5.97515
2 -11.0326 8.69347 -1.59435
1 19.4906 0.82869 -5.32808
1 6.60712 -5.92291 2.74584
2 -29.5061 -6.94264 8.91579
1 -15.4362 3.931 -3.09454
1 1.92936 5.07107 4.3197
2 13.632 -6.85268 1.19762
1 29.2529 0.416763 -6.85454
2 -15.9645 -7.90688 -4.73902
2 16.0955 1.94971 -6.76953
2 5.17233 -2.66454 3.73591
2 19.051 4.97837 4.35569
2 -27.1214 -7.97887 0.182841
2 -2.95536 7.8814 0.227519
1 25.0835 1.28912 -5.03006
1 25.2098 4.6046 6.52631
1 -0.55159 9.97306 9.17562
2 20.0304 -6.24002 1.84903
2 15.2835 -0.596909 2.65014
2 22.4704 1.92583 -3.2643
2 -23.1294 5.95793 7.7309
1 -2.24254 5.91687 -1.74702
2 15.6699 1.12108 7.69466
2 -6.57102 0.336873 -4.29742
2 -7.55808 -8.64567 -4.53438
2 19.4457 5.46488 -6.63378
1 29.8886 8.55273 2.09649
1 10.7729 4.42812 2.73063
2 -15.4269 -6.23367 -4.4321
1 7.61652 8.30988 -0.244826
2 -18.3489 5.53507 -0.129441
2 1.55222 8.16648 -4.33474
1 19.2553 9.44707 -3.40902
1 -6.10043 -1.72068 4.02961
1 4.05472 7.15128 1.5501
2 -15.5429 3.39427 -3.95803
1 -24.0087 -9.7705 -2.37049
2 9.34953 -3.15681 -8.39087
1 27.9018 0.594342 -6.36742
1 2.43905 -1.58616 8.10325
1 2.77448 5.61431 4.04564
1 14.9708 2.75906 6.65066
1 13.0941 2.82852 3.62788
2 -8.7054 4.77152 0.484964
1 19.3731 1.27799 -6.49542
2 -6.1403 -7.28952 1.63172
1 11.5501 -9.68641 4.65305
1 22.2027 3.16478 -0.637414
1 16.4564 -7.3553 4.49247
1 4.20224 -9.04274 -3.47643
2 -23.4982 1.63273 -3.42911
2 9.00651 2.17489 5.21336
1 -7.00911 -1.96332 -7.70937
2 -4.65456 -8.29944 -2.21152
1 24.7103 -6.24728 -4.42945
1 -15.916 -9.98778 6.18813
2 -22.091 -0.376832 4.41807
1 -22.0518 6.49017 4.03141
2 -16.6843 -0.387845 7.60028
1 18.6351 -9.67752 5.8894
2 0.813581 -5.7758 9.07318
1 22.7308 -4.5291 -5.79677
1 -4.75089 5.66369 0.675623
2 -8.12018 6.87201 -7.0784
2 -11.371 9.85318 1.31743
1 29.9986 2.18741 6.87109
1 0.945913 -9.46666 -1.91174
2 -13.7038 6.75996 -7.38502
2 2.39555 4.12584 -2.0334
1 24.6155 -4.64351 -2.72874
1 5.76149 -4.46713 -8.99634
1 1.24466 -2.12906 -8.7441
1 22.651 -2.71351 -4.11569
1 8.97669 3.66596 9.88811
1 23.2242 1.8686 2.22223
2 18.7923 8.38939 -6.1827
1 14.8913 -6.66334 0.635616
1 13.5428 -6.21877 -9.84434
2 -24.9599 7.99377 -9.98903
1 27.9858 -4.08518 -0.734609
2 22.6602 -5.48185 -4.98326
1 9.24277 9.49968 -4.59124
2 -0.765015 7.40414 3.44722
1 -0.188663 -1.45131 2.10375
1 -0.332159 3.45144 1.96675
1 -3.35845 -3.63614 -2.76265
1 -6.49166 -0.967177 -0.356977
2 -1.36345 -6.665 -1.20903
2 0.239643 2.0553 -8.83027
2 -28.2524 4.88036 -0.19614
2 27.8555 -9.09361 -1.0626
2 -4.62234 7.01023 7.91125
1 -15.1395 -7.28009 -2.9463
2 -5.54681 -8.718 1.27308
1 12.0472 -1.95737 -5.42899
2 -17.4273 8.45043 8.09617
2 13.3864 1.51081 -2.2116
1 13.8011 2.928 -6.71434
1 12.6652 7.823 -9.21708
1 -2.70703 8.09685 -5.51999
2 -28.6812 9.88359 -7.21032
1 -24.5462 -6.75666 3.82708
2 -3.66077 6.25893 6.19735
2 -12.3197 7.39982 4.36392
2 -9.83899 -4.9676 1.65035
1 -14.1807 7.9463 -7.07187
2 18.4367 0.416193 -5.94333
2 -11.1633 -4.33474 -0.620636
1 17.7361 -4.57661 -7.16414
1 18.856 -9.37267 3.95461
2 16.3748 -7.13651 -4.329
1 5.74026 -1.31123 -1.82735
1 -21.0856 6.86576 -0.464783
2 -10.0556 -5.10285 -7.43073
2 10.2239 -7.55874 4.59079
2 16.9411 3.01856 3.82479
2 2.84984 -7.7615 -4.90676
1 -24.2797 6.29853 -9.00022
1 24.9789 3.13927 -8.65509
1 12.7217 8.78276 -9.59281
1 18.6202 6.98907 3.03246
2 -7.26227 -9.92485 -4.63162
2 20.8445 9.61498 -1.94689
1 -1.26008 -1.43827 2.36556