11280
Atoms. Timestep: 80100
1 10.3647 -1.48875 -6.36696
1 -19.9314 9.26311 0.144565
2 -19.6865 -6.23741 2.65847
2 -15.0712 -7.82896 -9.04778
2 -26.3137 2.0537 -0.471922
1 5.03662 7.97642 4.19729
2 -7.49907 3.44932 -4.90704
2 -26.6594 1.01815 3.95231
1 -9.98916 -3.08798 -7.3444
2 23.6788 -6.55473 0.849771
2 -18.3311 6.22257 2.62666
1 -26.7716 -0.261636 -0.868317
1 11.6028 -8.05603 3.96671
1 11.5266 2.94601 -6.00678
2 -6.06469 -3.41414 2.02041
1 13.3379 0.0741087 -5.23503
2 -23.364 4.493 -6.55164
2 -22.004 4.06339 0.946975
2 28.6674 -3.84541 5.43742
1 -3.97299 -8.313 -7.94845
2 16.4023 6.14211 1.54699
1 18.8145 1.55931 -1.79988
2 -9.53092 3.01432 -6.04183
1 20.0603 6.03522 2.22943
1 -28.6618 -6.14538 -4.42037
2 -7.1558 2.34995 -0.840191
1 -24.9731 6.78354 0.870872
1 -17.4592 3.23278 -9.93139
1 24.5251 -8.88319 -8.17038
2 -24.5086 8.03902 -5.62172
1 25.0624 1.43114 6.25772
1 3.17386 -7.37765 0.297238
1 -28.7296 -6.42432 3.51282
2 -18.0817 -6.57005 3.86444
1 -11.2442 8.51935 -7.19871
2 -25.2197 9.38633 -1.76131
2 -14.7734 0.751001 5.40203
1 -29.195 -2.311 9.04745
1 2.62724 -0.0529539 -5.9952
1 -27.7111 0.771254 -8.88377
2 -17.6069 5.14143 1.78955
1 11.0664 -1.75599 -1.98815
1 15.8359 -2.89911 -5.34618
2 29.0176 -3.7958 8.23752
1 12.2991 -7.62322 9.10651
2 27.9563 -8.79876 -2.35403
2 1.63819 -8.72573 -0.903844
2 -19.4571 7.01612 -3.9796
2 -28.3947 -8.07342 3.05107
2 -13.4587 7.85218 -2.58236
1 12.5124 -6.48174 -6.72084
2 1.32368 8.76244 0.088283
2 -6.9148 -8.26706 4.9603
1 -12.1247 -4.11712 -6.7461
2 -23.9531 -8.61505 -3.40413
2 -2.51222 -5.87866 4.93969
2 -19.5637 3.4409 -0.0745224
2 -7.50987 2.39907 7.20227
1 18.8542 7.09509 -4.77356
1 -19.5166 -8.75938 -3.90769
1 -21.8804 1.35476 1.54297
1 19.7409 -9.69836 -4.93696
2 4.63731 -1.80818 -1.04165
2 -10.8618 7.88788 -9.84485
2 -17.4538 -6.58926 6.70969
2 -28.3106 1.69557 6.50744
1 -2.68808 5.21702 -4.97176
2 -4.65289 -1.83765 1.78574
2 -12.8061 1.50926 -5.9089
1 -7.25091 3.69346 -2.87243
1 -15.6495 -9.47552 0.487833
2 -22.6438 2.14479 -3.50099
2 -12.8883 3.15012 -2.32622
1 -6.20042 3.49103 -7.78272
2 28.8836 2.42037 -1.02056
1 6.27005 -9.30514 3.24952
1 22.6481 6.06605 -9.47695
2 -25.1359 3.19994 7.69833
1 14.9495 8.35102 -3.40341
2 -15.102 -7.92726 -0.394863
2 -21.3943 -3.99935 -0.556562
2 23.6904 -1.70788 -1.57734
1 12.401 -2.01875 -0.572581
1 26.7933 1.91778 2.94839
1 -29.583 8.67221 8.27083
1 3.54472 6.39619 8.27014
1 2.05999 -1.56075 1.68086
1 16.128 1.36077 9.84306
1 -19.304 6.96912 -9.96584
1 12.4379 5.58615 0.570678
1 -28.5418 5.71182 9.55946
1 -25.1161 3.08254 -6.3633
1 12.6806 -6.09967 -9.03728
1 4.60448 7.25204 -6.64219
1 13.6517 -4.99146 8.76631
1 25.9237 1.81267 8.89498
2 -2.40056 -3.06499 -9.24567
2 -19.6129 -9.84758 4.31411
1 21.7482 7.48653 -6.3064
2 -28.9155 -8.11043 -5.48307
2 -21.2348 -0.118226 8.98185
2 -11.197 -8.5871 9.47836
1 27.859 -3.11807 2.16917
1 20.4935 -7.01527 9.63357
1 19.1005 -6.14742 6.36439
1 11.775 -9.16201 -9.98408
2 1.16338 2.13365 -7.20318
2 -13.8951 -6.83638 -9.17343
2 8.42163 1.19025 5.92351
1 6.49128 6.8368 7.11842
2 -21.4998 5.44168 6.36357
2 12.8796 -3.67886 0.476147
1 16.2956 9.20143 -6.90274
2 -10.2005 8.61222 0.511334
1 5.42556 0.541393 3.25739
1 27.2762 7.20682 4.33215
2 17.007 1.69848 2.34135
1 3.86226 1.13645 0.302369
1 28.926 1.42957 -0.498826
2 24.4799 -9.51906 -0.0968186
1 -19.0607 5.32478 8.86035
2 -25.9503 2.99345 -8.3464
1 26.9724 8.43524 -4.66204
2 -21.5079 7.35933 -5.70665
1 23.5919 -6.0136 -5.98518
1 25.3323 -5.33001 -3.69111
1 -29.5125 -2.93696 3.66531
2 -11.4599 -2.46978 7.80437
1 10.1062 -3.04646 9.24523
2 -23.018 -2.77054 6.48178
2 13.3494 4.75921 9.32968
2 4.61784 4.36694 -8.55449
2 -20.1951 -5.32839 -8.65841
1 6.72693 0.320689 -8.11377
1 9.24251 5.71331 -9.08601
1 -22.1646 -4.08954 7.4923
1 -7.92426 -9.95263 -3.32257
1 4.10266 -4.31839 -0.418505
2 -13.8515 9.96071 9.84322
1 15.2267 -1.86722 -0.980493
1 24.2917 -6.29511 1.89875
2 3.1294 5.9831 -5.63088
1 7.9312 -8.00987 3.89362
2 -23.9932 -4.39637 5.87998
2 -18.4439 -6.77275 7.10168
2 3.55176 -0.30439 4.49738
2 -6.67133 -5.72513 4.03523
1 5.90523 0.907108 5.42291
1 13.9287 8.11165 4.51577
2 -21.2832 -8.29655 6.8013
1 -18.7709 8.88609 7.67161
2 18.97 4.43527 -7.02921
1 -0.275896 -6.44699 5.89027
1 27.2125 -9.97368 -1.85219
2 16.2223 -2.34064 8.19398
1 -1.03306 -3.46886 8.35301
1 13.9702 4.31127 -3.79098
2 5.82224 -0.323308 -7.84151
1 17.117 -6.41471 4.62086
2 -27.8228 3.2956 0.117918
2 -11.2825 -2.16931 -1.84863
1 -8.77324 -8.91256 -5.73101
1 3.10936 -8.51769 9.8057
1 6.32111 -9.06074 4.30432
1 11.4235 6.02156 -3.22565
2 -11.3601 -7.16139 -2.43198
1 11.9606 4.47468 4.43492
1 -14.9119 4.19975 -8.41529
2 -21.0802 -5.9322 7.61769
2 17.2138 -3.92893 -6.2983
1 9.17228 1.13571 -9.99557
2 -18.4397 2.49449 2.00654
1 12.1626 7.1626 -6.88491
2 -18.9154 -9.48092 -8.12165
1 -11.7526 -3.17209 -5.99298
2 26.5016 -9.3943 -3.82309
2 -22.2032 8.64097 4.04325
1 -15.3211 -8.74873 -1.07428
2 -22.5397 9.10727 -6.62214
2 -18.6619 -0.511697 2.33606
1 25.4309 -5.80139 -7.13889
2 -8.43262 4.73337 -0.752469
2 -16.398 -1.42417 6.83234
1 -12.5276 -6.92539 6.89848
1 24.3487 -7.71499 9.34844
2 -16.5113 8.43951 -6.37353
1 0.13319 0.431575 -6.69737
2 29.1011 -0.0454533 -0.0246633
1 21.4509 2.30656 -5.43412
1 -0.20459 -9.68828 3.44638
1 -8.01907 -2.97066 -8.99268
1 21.0201 8.16607 -2.71087
2 -9.12359 6.25189 -7.12092
1 17.1153 0.661978 -4.52827
2 -8.51764 2.15 -9.89578
1 -23.8758 -3.27405 6.30949
1 -22.4766 -3.33099 8.35423
1 2.07187 -9.91018 -4.60957
2 11.1672 -6.06941 0.0301571
2 0.071264 -9.29863 -2.73541
2 -16.2696 3.88047 6.59569
1 22.4507 2.90704 -3.87143
2 2.3683 0.624881 -0.812216
1 14.7346 2.87606 -4.78879
2 12.5222 5.28941 8.34557
1 15.3249 5.6713 -8.09804
1 16.9396 -7.42157 -6.28298
1 17.8594 -4.58268 2.98369
2 -13.6532 0.585167 3.1138
2 -27.8521 -6.96401 -0.606536
2 -20.1385 1.19241 2.22999
1 -21.4707 5.61823 -9.29422
1 16.4346 -3.71253 2.16989
1 -6.43455 5.03382 -5.75344
2 25.8378 5.17496 3.85318
2 -6.35827 -5.58985 -1.46793
1 8.10541 -6.33024 9.69625
1 25.5037 2.50232 1.05535
2 27.6364 8.88185 8.85446
2 -10.1216 9.40579 9.50704
1 12.0715 2.36283 9.66749
1 0.868626 -8.36683 -4.10173
2 29.4048 7.77156 3.82728
1 5.60208 9.75374 -1.91432
1 -2.70089 -9.42192 -0.846853
2 24.3548 -9.90856 -7.45501
2 -18.5572 -5.12064 -0.579157
1 -18.0601 3.74642 2.16045
1 16.7886 1.99971 -8.23186
2 25.6262 -3.34347 -1.94449
1 4.40912 -5.36363 8.52887
1 14.156 2.47132 7.08644
1 0.557446 8.72633 -9.57858
1 5.72977 -7.946 -2.39185
2 -22.2938 -0.842725 -6.54168
1 -23.8306 4.92376 -2.6389
1 -26.6394 -8.97201 4.13773
1 -25.7707 0.0695944 -9.93543
2 -28.2295 -2.91973 -7.50913
1 5.05277 -4.00951 -0.922916
1 24.5905 -1.03836 -5.46318
1 18.1667 5.1709 -3.70373
1 -22.5453 -5.32541 -4.29731
2 -8.97132 -5.95174 -4.54847
2 4.16442 5.3836 -0.457494
1 15.4866 -7.26887 -4.91763
2 -19.6395 7.74097 -9.26782
1 22.7499 1.41647 -0.499215
1 8.72257 -4.95962 -2.62559
1 5.48811 2.97107 0.104773
2 -20.3269 -3.53007 0.995681
1 1.19111 -9.96049 6.09778
1 19.1683 5.57065 -9.64386
2 -15.7328 -8.66625 3.87105
2 -8.32892 -5.35558 -5.79236
1 13.4555 -9.59779 -3.23499
2 -4.44097 3.36953 4.43085
2 11.0652 9.67377 -2.40491
1 26.838 9.28625 0.193836
2 10.1201 4.97304 -3.2564
1 -2.01717 8.67263 0.374756
2 17.5961 -7.51337 4.90139
2 -19.7208 6.33101 8.52694
2 -10.0855 -7.38886 7.38028
2 -14.3433 -9.85449 -5.14439
1 12.8839 -7.39151 -7.22882
1 -21.2911 4.10585 2.24493
1 26.5197 -3.86916 -0.574904
2 -1.85052 2.42543 -8.29568
1 6.13365 -5.97285 4.55108
1 14.6693 -8.75249 5.65014
2 10.2427 -0.637298 -2.98805
1 20.8261 4.60589 -0.47261
1 6.66025 -0.332383 9.67701
1 -29.1919 1.44433 -1.87877
1 -18.5479 8.70252 9.77515
2 -12.9871 3.36495 1.42182
2 7.42902 6.81539 6.05143
1 5.57747 5.76084 2.33531
1 4.58046 -4.62352 7.71692
2 -15.7392 -1.54848 -7.21246
2 15.1072 8.89701 -8.09146
2 -6.3765 -7.28428 8.85511
2 11.2569 2.92082 -7.18348
2 -14.7373 9.21376 8.0544
1 28.5005 -5.13911 6.66929
2 -29.3224 3.57565 -9.80853
2 28.2756 -4.68552 2.43126
2 -7.58888 -4.22944 -8.0505
2 -13.3267 6.24218 -2.66391
2 -24.1631 2.78743 2.01263
2 -12.4425 4.90886 -0.198139
1 22.4959 5.93278 7.03007
1 -26.133 -5.87227 6.83605
2 -27.7873 4.008 -8.69093
2 3.22927 5.46635 3.18261
1 20.9271 -6.79277 -0.146867
2 -29.8548 8.89766 -8.66752
2 7.16102 1.27558 2.41205
1 -28.987 0.504938 -6.89104
2 -23.2958 -8.56637 6.74599
1 19.0889 3.96317 -8.58627
1 19.4879 -9.58588 -9.66576
2 -23.2594 -1.79863 -3.78798
1 -1.27718 6.70069 5.42532
1 28.446 -3.92078 9.81886
2 -2.90057 3.64072 -5.43783
2 -3.20304 -1.99079 8.51933
1 26.6547 0.845668 -0.303011
1 13.1832 6.21408 -3.04357
1 -25.9777 -4.46448 -5.12279
1 19.8978 3.95868 3.35478
1 -10.0665 9.06488 -5.67809
1 15.519 -6.88703 4.37093
2 -27.0962 -9.90947 -2.94962
1 22.6125 4.86013 5.53955
2 -21.4975 -1.94164 0.663229
1 28.9773 2.75658 6.91503
2 24.8255 -0.689726 2.00527
2 -22.6019 8.2376 0.830366
2 28.2346 -8.10404 -7.21636
1 22.8356 -4.37285 4.99943
2 23.8563 6.95939 -7.88522
2 2.01518 9.87443 3.65753
1 -22.6057 -4.135 -1.66356
2 -2.69243 2.23584 -5.41527
1 -1.35129 -2.7311 0.758064
1 -3.21428 -4.08323 -0.191619
2 -21.3704 7.50145 -6.81218
1 -3.75737 -8.37157 -0.414905
1 -10.9151 2.83238 7.83528
2 10.6067 8.9394 -5.72273
2 -12.1512 5.26097 6.8779
1 14.4514 7.31337 -7.25869
2 -24.3939 -2.21842 0.314713
1 -23.1841 -8.9011 4.40896
2 -7.18222 9.24328 6.14649
2 -14.8822 9.24063 5.02154
1 10.9234 5.50041 2.13892
1 -27.8802 0.382557 5.6744
2 -29.3588 -3.12146 -9.90034
1 -4.84817 1.62264 -0.158401
2 -16.7163 -9.97222 3.20505
2 -13.2167 7.52157 9.5815
2 6.7978 -8.23409 -9.61
2 -22.7349 -7.73778 -0.657892
2 -7.62459 -3.90187 -4.82211
1 10.9403 -2.14056 9.51442
1 17.3057 -3.41084 -5.16746
1 -7.72112 -9.94699 -1.83968
1 14.2734 0.389862 -8.60397
2 -18.0107 5.78954 -5.78973
1 8.02143 1.0793 8.19588
2 -13.046 9.13748 -0.225096
1 19.1941 0.77754 9.82893
2 -9.81022 -5.79158 4.51038
1 -10.8696 -5.53312 8.65875
2 25.9967 -5.63311 -1.59523
2 28.1598 -3.89263 -2.93686
1 11.7854 -4.84497 -2.40522
2 16.2762 0.611341 -8.58659
1 26.9792 2.08809 -4.23188
2 8.46413 5.90414 -3.41638
1 13.0727 -5.82853 6.80078
1 19.8069 -9.8655 6.25355
1 9.5409 -1.98202 -6.90071
1 1.3927 -2.03311 7.21019
1 20.8275 -1.25846 -4.40222
2 23.1033 2.44116 3.4058
2 -3.65409 8.24375 3.78318
1 8.28209 2.21353 5.72858
1 -23.3766 -1.52171 -0.13633
1 -1.38035 -3.03617 -8.05922
1 12.2532 0.0289276 8.79666
2 -15.4586 -4.97377 -7.83806
1 -1.32193 5.70191 -1.54721
2 -17.6815 -0.932362 -8.67891
1 15.907 -3.3194 -3.55853
1 11.5823 5.55234 -7.64638
1 18.6979 -0.170573 7.69908
1 2.07666 -5.82525 -7.53891
2 10.8866 1.84993 6.03431
1 -1.12643 8.49243 1.857
2 -9.02971 -8.67152 2.1652
1 22.7878 0.379314 -7.92945
2 -14.1089 4.53706 -2.45611
1 9.13336 2.52257 -5.47156
1 -10.3348 3.87927 -2.90189
2 26.7447 1.85519 -7.69955
2 -12.5186 -8.97972 2.77736
1 -11.2777 -1.81762 -3.34375
1 -0.00263357 -0.462368 -4.68385
1 -27.0686 5.77364 5.80762
1 -26.7503 -3.07601 4.78558
2 -8.02387 5.22585 2.02787
2 6.26906 -2.40838 -0.48261
1 20.3008 -4.46406 -0.895494
1 8.05836 7.06001 -1.03901
1 13.8683 -8.22643 4.62731
1 6.20999 -6.33499 0.437361
2 -27.1895 3.04462 2.58125
2 -18.0003 8.48578 -7.49151
1 17.7221 9.08814 -8.1096
1 27.5744 -2.77283 -2.90767
1 10.387 -1.08578 7.98339
2 -0.329609 0.497053 6.60047
2 3.75057 2.6841 6.00647
1 -13.8734 0.0779501 -6.88357
2 12.7835 1.62376 3.5696
1 -28.4129 2.37736 -0.743575
2 0.887739 -3.6753 -7.26386
1 -8.7298 -3.81617 -0.694432
1 11.2907 9.64712 -1.32125
2 2.49449 3.47936 7.71764
2 14.7969 4.049 6.45725
2 25.4958 8.66198 -6.92088
1 18.5814 -8.78628 -1.2324
1 9.94814 5.77189 8.59577
1 -15.2604 0.755729 2.97088
1 23.3174 5.26394 -9.69006
2 -19.7776 9.99944 7.54816
2 -5.22169 3.90429 -4.06812
2 -24.0561 9.69053 3.76224
2 28.1663 0.44641 0.259025
2 -9.72589 -6.09445 3.18044
2 -21.8743 -6.16524 4.33598
1 20.639 8.2821 -3.68459
2 -29.2272 5.80861 -0.689904
1 4.83107 -1.82436 -8.52187
1 14.5437 -4.40455 6.53044
1 0.262677 -0.430843 -0.356216
1 -18.5681 -0.0964739 -6.53082
1 14.614 -0.665404 5.50489
2 -16.8272 -6.06241 -0.303563
2 2.77165 -2.90379 2.40615
1 -29.3975 -3.90683 -7.15898
1 13.1234 -6.87554 4.74048
1 18.7034 -0.103132 2.58995
1 8.72423 -1.25177 -1.38943
1 0.255405 -7.07784 1.5651
1 2.01975 4.63994 1.99867
1 -18.7985 3.98486 0.532429
2 -7.9183 9.07089 -4.12733
2 -20.8025 -9.66752 -2.15737
1 -10.3048 -7.73183 5.93338
2 -0.477936 -3.57943 -9.80813
1 -24.8942 -7.00832 0.244578
1 12.2004 -9.94173 -5.61793
1 4.62928 -2.35542 5.78838
2 -4.08496 -8.918 9.79177
1 14.2518 1.35016 -8.422
2 -26.2104 -1.30917 -2.67609
1 29.4837 9.89356 -5.1744
1 22.3191 5.84572 9.1531
1 -2.00753 5.22318 -2.65606
2 -4.96188 -9.3772 -6.23631
2 -24.291 -3.66446 -0.119353
2 -1.14726 -7.73785 7.41328
1 21.6748 -9.24728 7.2727
2 -5.19961 -3.6522 7.89347
2 9.71857 0.926316 8.12512
2 -7.53513 -4.30816 -9.10021
2 14.4803 2.71625 2.34928
2 27.7455 -5.20767 8.66571
2 -19.0526 7.29025 8.5274
2 13.018 -7.81583 6.43793
1 11.8774 5.77508 3.81238
1 -14.4423 6.86032 -2.0765
2 -16.1496 -0.217881 -8.39806
2 28.0207 6.58101 4.06217
1 7.39843 0.875397 9.27388
2 -12.8009 -7.66685 2.9415
2 24.6306 -4.66917 -9.36411
1 2.09051 1.75706 2.13018
1 -9.17376 8.4337 8.43522
2 -16.9793 7.33042 -1.60564
2 -25.6393 9.20735 8.29172
2 -8.54014 9.29968 -9.90525
2 -9.89819 -4.95761 -0.386833
2 26.9575 -3.19989 5.28708
1 -29.1211 8.01119 0.0167877
1 -2.25217 6.26629 -7.15406
1 12.9748 7.71773 9.53141
2 -11.4512 -9.93761 -8.50547
1 0.189903 -3.67007 7.34834
1 1.03399 -5.58798 0.935506
1 21.1182 -7.17805 1.67877
2 -29.0044 -8.31644 -0.0413815
1 -4.01933 8.20094 8.24288
1 -24.5249 -2.10529 -6.02644
2 -6.78513 -8.34931 2.35505
2 14.4681 8.42902 7.62488
1 3.88146 0.283282 -5.15967
1 18.3457 8.03843 6.10667
1 -5.43196 -3.72833 -1.0756
2 -10.0985 -0.96278 3.32595
1 13.0574 7.29181 3.06631
1 -18.0458 6.45755 8.37681
2 -5.38072 -2.25247 4.49067
2 -0.702518 2.52591 5.31656
2 6.53071 -6.87534 8.75309
2 -6.99607 5.49562 -1.1167
1 5.96856 3.06323 9.36077
1 1.72986 -0.230529 0.0893464
1 26.3374 -5.78047 -9.05008
1 -5.45354 -1.24795 -7.1979
1 7.62998 -9.94905 7.4783
1 -19.6739 9.37587 -2.97958
2 -13.3627 9.18367 8.9199
1 -7.75627 9.63946 -6.1873
2 28.2196 -8.20991 5.9808
1 27.4017 0.630709 6.28852
1 -8.06887 9.66731 1.56768
1 27.4523 -5.81793 5.25116
2 -1.40065 3.87109 8.36919
1 11.6194 -9.50151 -7.86339
1 -5.98805 1.55672 -1.76057
1 25.0354 6.5181 1.531
1 -12.2423 2.39831 -9.75898
1 -28.8669 -7.44287 4.94041
1 6.68265 1.40967 -9.87092
1 7.23563 -5.32382 4.34853
1 0.0533983 -1.91703 -7.83673
1 19.9791 9.50333 -7.61581
2 -22.9309 2.52889 -5.9062
2 -28.3417 -3.30462 -4.27971
1 17.6186 0.750059 3.26044
2 -5.64273 5.03329 -3.60208
2 -27.9499 -3.18078 -6.41377
2 -16.0853 -2.58976 1.14582
1 0.819184 -7.9838 1.26437
1 -22.18 4.69453 8.48993
1 23.1838 9.05976 -3.92049
2 14.5787 8.7293 2.13323
1 -15.2689 -3.40704 0.297365
2 9.90979 5.04162 9.56447
2 -18.7893 9.33124 1.7321
1 -18.4069 3.74443 3.97157
2 -21.6515 -7.68967 -2.13351
1 18.6774 8.33625 7.177
1 0.981263 -1.17386 -6.95563
1 15.8923 1.11705 -7.84993
2 -10.4186 -7.86929 -7.0296
1 -4.98376 -7.40817 2.13264
1 18.0782 -5.71862 -1.99862
1 0.254755 4.43413 8.60619
1 -0.946112 9.72111 -6.15717
1 22.4027 -0.758714 -6.35529
1 19.1772 3.07664 -0.555666
2 -7.07514 0.0218921 5.14379
1 28.7802 -1.61601 -9.30878
1 27.4738 -1.47011 7.22322
2 -23.5718 -9.11085 9.34615
2 27.2901 -8.77481 7.76536
2 20.3882 -4.83937 9.00261
1 -12.3265 7.46076 8.37809
2 -11.8343 -1.89304 -5.95421
1 -8.2231 -8.27242 9.15072
1 -21.3779 8.91921 0.896533
1 11.6045 -4.28496 -1.1333
1 24.4732 -9.71439 -3.34207
1 -24.4476 5.94585 0.844143
1 20.1065 -0.912624 -5.36485
1 13.4901 8.10076 -4.55047
1 -27.8128 1.75163 -7.68024
1 -20.3188 -3.3539 8.36396
2 -26.0992 -7.26162 0.373234
2 -18.0666 -7.57678 2.85209
1 29.3575 9.25768 0.29414
1 12.0317 -2.30134 -3.84653
1 0.404694 7.45841 -0.214268
2 28.2528 -2.33995 -7.49746
2 13.889 6.96337 7.46134
1 8.48216 8.87527 3.78401
2 -11.3498 -6.09064 -3.93243
2 -20.6764 -3.38758 -6.03254
1 0.822159 -7.91001 5.46132
1 -4.52803 5.47402 5.99634
2 -7.22227 0.290146 8.93802
1 26.655 3.6692 -9.7152
1 -22.8491 -8.1096 1.15311
2 16.442 6.64932 7.50442
1 4.2759 -6.80371 8.99367
2 -25.0334 4.91149 -3.68338
2 -5.43449 7.06516 9.09012
2 -2.0513 9.41528 -9.6922
1 21.6429 -5.13836 7.33141
2 -10.279 -1.48307 4.42034
1 21.4144 -2.45497 4.23036
1 11.6759 -7.5211 -5.55091
1 -27.4727 -2.27022 -5.00328
2 -27.5806 -1.66643 4.94111
1 0.437432 -3.37373 -3.38694
1 3.65726 -4.59221 -3.59059
1 11.3097 -0.316667 9.43538
2 -5.63883 -2.1697 -8.20072
2 -1.47145 6.99525 2.84025
2 -4.59132 -8.5335 7.69013
1 3.72008 -9.23577 4.55992
1 -16.1583 1.48364 -1.34043
1 11.0738 -1.15954 6.20262
2 13.4521 -7.9809 -1.97516
1 16.9468 -2.67303 2.57557
2 18.1462 -6.32062 5.58984
2 -13.8138 7.26097 1.93925
1 20.4835 6.81526 -0.260673
2 -10.3264 -9.2559 -9.22726
1 0.604289 8.96944 -2.16535
2 20.8155 2.2768 2.6957
2 -22.8755 4.05794 -9.96615
2 16.5651 -5.98131 -4.47332
1 -8.44768 -9.88536 -6.94571
2 -6.54795 6.99692 -1.48945
2 22.0509 -7.97803 -6.85775
2 -14.0521 -4.3638 5.42392
1 -8.20201 -3.61141 -4.028
1 -26.3851 6.46967 -8.17823
1 29.1732 -2.56869 -0.242675
2 0.361095 1.77947 1.48484
2 25.1364 -7.28847 -9.55612
1 15.9464 3.9405 3.12997
1 21.9311 -1.31744 0.154369
1 -21.4032 -4.12443 -9.88485
1 -15.9342 1.42559 9.47835
2 -13.9065 -8.31354 -4.70547
2 23.7897 3.14751 -5.76276
1 21.8567 -2.46515 -7.21205
1 21.5219 1.29027 -3.95196
1 -27.0786 1.11694 5.63509
1 -0.277337 -5.1233 -3.04314
2 12.2178 -9.04086 7.77635
2 -5.0643 -9.32207 9.29838
1 28.1304 0.211136 1.71452
1 28.2221 3.0872 -5.18186
2 2.11364 -9.53361 -0.0890279
2 -15.3699 2.79948 3.84622
2 -2.66673 -8.3859 -3.76555
2 -0.340814 0.488159 9.47979
1 22.9512 3.32186 0.106257
2 24.2557 -0.120849 -4.70555
2 -29.7569 -0.596895 6.15455
2 -14.6955 -6.8144 0.697812
2 -25.4348 -1.95789 2.27635
2 -22.0618 3.94858 -5.95662
1 -10.0912 -5.99796 -1.96349
1 18.0703 -9.33445 9.83172
1 6.3485 -5.29849 0.130011
2 12.5156 3.8294 -2.69785
1 13.8231 0.18898 8.47416
1 -11.857 -0.878953 2.42644
1 21.4472 6.16829 5.80212
1 -26.5523 1.08763 7.12671
2 -22.2934 0.698949 6.80663
1 7.10175 -1.41218 -9.53189
1 2.68058 -4.17643 3.44758
1 2.6902 6.53195 -1.76577
1 26.7551 -2.01929 6.58998
2 -13.251 -5.0309 -4.86918
2 -28.7863 0.867661 7.39883
1 -0.154802 -2.84448 -7.54775
2 -4.85911 -5.04025 -3.83087
2 27.2085 -7.28354 9.50775
1 1.25837 9.80527 -0.845451
2 14.6641 8.18604 3.36105
1 23.2862 -0.0957648 -7.08299
2 -14.4628 -2.86889 -3.73346
2 -7.57773 -7.55837 1.61182
1 26.4496 -7.81928 -7.9501
2 6.10943 -8.46695 -4.35655
2 27.7936 -2.77849 4.8407
1 28.4811 -4.83832 -5.7289
2 -22.7412 -3.70644 -4.84386
2 -15.3513 8.85157 6.89443
1 4.85688 -6.60646 3.86543
1 -5.59599 0.363617 -5.75498
2 -9.79531 -7.76667 -3.75877
1 24.5213 -2.59435 0.331645
1 -8.21412 2.27408 6.3515
1 20.442 3.33503 -3.57385
2 -20.6385 -8.84799 -8.89652
1 4.28168 9.10517 2.92649
1 -4.94516 9.94868 -1.06711
2 -10.0144 4.35141 6.59168
2 -21.0417 0.339749 1.66625
2 23.6569 4.61214 8.69019
1 -1.61024 6.26123 3.95593
2 -15.7164 8.88891 5.53813
1 -7.39023 -2.35879 -4.49964
1 15.8224 -4.91792 -6.86586
2 -13.7902 2.18502 -2.57205
2 1.59518 7.23915 6.62171
1 3.62927 4.10513 7.99652
1 8.53112 -5.91231 -2.36394
2 -16.453 -2.96671 9.58723
1 -21.4929 -9.51316 4.77636
1 -8.5646 -4.42638 -3.69635
2 0.690701 0.445525 -1.99943
2 16.3789 4.82039 7.52523
2 26.0538 6.28411 -9.81027
2 -28.0994 -2.14341 -0.859926
1 -15.4029 1.02025 6.21043
1 27.3493 -0.981807 3.67783
2 -10.0181 6.3882 4.27967
2 17.1623 2.0451 5.3446
2 -21.0495 4.53285 -2.8353
1 -29.4353 3.31143 2.43344
2 15.4395 -8.3169 4.393
1 -29.3777 -1.08879 -6.10959
2 -10.5364 0.895415 -8.84733
2 -1.72037 -2.91295 -4.13744
2 -27.3775 -4.13091 3.01101
1 -14.9595 -3.0325 4.03575
1 -11.1044 -2.34707 -8.95817
1 26.4691 -9.2263 5.42957
1 3.7722 -7.5212 4.03546
1 -25.8491 -9.44589 -8.66413
2 5.39417 0.904926 4.51223
2 -4.91659 -5.16385 -1.02688
2 -1.00775 3.11803 0.350163
2 27.6486 -5.19264 -3.19249
1 9.9513 -9.29474 1.64108
1 13.0139 -5.51359 8.18338
2 9.58026 4.33442 3.36706
2 -2.03262 -0.0766775 5.49953
2 25.2391 6.03972 -1.74527
2 -29.3503 0.220471 -9.94471
2 18.4207 -8.72421 4.34246
2 -21.4517 -3.87444 8.68149
2 -13.8826 0.130199 -8.03571
2 23.2846 -0.621857 7.19568
2 -16.6657 -5.6279 -2.5974
1 24.581 0.989803 4.48508
1 -7.62871 -1.98318 2.07512
2 -9.12088 -8.17599 5.87126
2 -8.62 -8.98907 -2.22292
2 -8.32468 -4.3725 8.24188
2 -3.97412 4.14179 -1.23473
2 -26.7562 -8.26947 -9.90284
1 24.6374 1.87846 0.81605
1 16.5087 9.93513 -5.81977
1 21.3016 0.96164 2.98136
1 -14.6632 -6.11756 -8.35721
2 -22.3014 -9.36211 9.72555
2 24.1093 3.21164 -6.78975
2 -14.8763 -1.76342 6.88653
2 -4.47955 6.23104 6.87328
1 26.142 -7.55058 -5.50908
1 18.1734 2.66997 7.18115
2 -18.2264 0.174939 -4.59624
2 -15.6027 8.2036 7.82168
1 28.0179 -0.845433 -1.03073
1 19.5848 5.30066 0.335251
1 -0.0677028 -5.97315 -5.65631
2 -10.5842 6.35518 -1.05392
1 -27.3924 -9.70953 0.605581
2 -14.1712 3.04276 1.36135
2 -28.8374 7.91043 1.14009
1 -0.406487 5.38087 -7.01058
1 -29.8209 5.82203 -6.71892
1 11.8609 -3.12723 -2.80217
2 -17.4681 -9.71546 -7.39374
1 -4.90365 7.55368 -5.00102
1 2.84525 8.0287 -5.17849
1 -29.5148 9.62075 -1.06441
2 -1.39277 9.06843 9.39297
1 16.9387 6.9964 -3.25938
2 0.326867 8.86234 -4.56955
1 18.4252 -6.50559 0.078112
1 -26.3849 7.39606 -2.1111
1 3.71069 -2.85141 5.35304
2 -25.3747 6.43891 -6.16162
2 -11.5101 -8.16759 -0.380114
1 -19.461 -2.02737 -9.31057
2 -12.5724 2.64114 3.95708
1 -4.1392 0.311958 -8.05799
1 -24.3844 7.48019 -2.9486
2 -19.4915 3.38552 8.1304
2 -5.53814 4.62006 -1.44902
2 -4.67931 -8.40587 -7.2036
1 17.8368 8.05417 8.29528
2 13.4803 -9.4747 1.9026
2 11.7222 -9.08835 6.22053
1 7.19073 4.71892 8.53496
1 9.91888 7.90235 7.47173
1 20.9886 1.97861 6.27917
2 -20.0166 -6.11712 3.67083
1 13.4225 -0.594929 -1.90072
1 -0.998631 -3.1071 1.90235
2 -5.05531 -7.32633 -9.92256
2 -17.1924 -9.18544 7.06648
2 -25.0455 8.19292 7.99582
1 -7.17684 -4.7846 -6.6547
1 -7.87016 -7.57211 -8.37701
2 -3.82939 3.61655 5.68263
1 -28.8106 7.10347 -5.53135
2 -21.723 -6.90547 2.07268
1 0.671365 -1.4164 -9.69598
1 -19.7034 8.00896 -3.42529
1 8.52057 5.59479 -7.40993
1 -23.6177 -3.98156 9.23945
2 -16.5081 -6.99246 3.97639
1 -27.8486 -6.0403 -6.59751
1 11.0768 -8.5026 -4.01099
2 6.27733 5.46323 -1.12649
1 26.7252 -6.84616 7.67848
1 -1.40957 -7.76566 -3.62724
2 -14.4193 -5.28714 0.505571
1 -4.8039 -6.3474 -7.64433
2 -4.51897 -1.43762 -2.12676
2 -29.1262 6.38541 5.20767
1 -13.7863 -2.93631 5.47976
2 29.4292 3.23768 -9.72569
2 -24.3896 -4.1921 1.88573
1 8.18653 -2.60456 4.39456
2 0.941151 -0.671156 3.2632
2 -21.1025 4.09138 -4.136
2 -16.069 -1.08267 7.95905
2 -27.5336 1.78483 -1.03913
2 23.0144 -1.09851 -0.00969702
2 -13.1115 9.49798 -9.31508
2 -4.20323 7.22608 -7.88492
1 0.932503 -4.41632 -2.56589
1 9.98967 9.83352 -6.94356
1 -3.99639 1.33698 -1.67303
2 10.3851 -2.98214 0.599153
1 22.6429 -9.94986 2.10866
2 10.1827 -8.91833 -0.597154
1 -26.8801 -8.32138 5.23897
1 13.7686 3.07883 -4.63749
2 -16.7373 0.855569 6.79797
2 11.9427 -6.96346 6.14476
1 25.328 0.451694 4.05507
1 -6.622 8.89732 2.45493
2 -29.223 -0.0181141 -0.714361
2 -4.09921 -8.64823 4.18616
1 6.6335 5.30271 7.40669
1 -1.45461 -5.19188 -7.81293
1 15.9827 8.2825 -5.21753
2 5.36681 0.0475339 5.20069
1 15.8265 5.93201 0.655571
1 -9.3097 -2.36193 6.08129
2 -8.30774 8.95303 4.02961
2 -5.19195 5.92223 9.24345
2 27.1858 5.94903 6.90199
1 8.98372 -3.34993 2.9056
1 -29.0034 5.50499 -2.66566
2 -22.4744 -8.78337 -3.38132
1 3.71097 0.74273 4.23487
1 -25.8442 7.90628 -0.577582
1 24.307 -4.92145 2.71008
2 16.7675 -9.57368 5.61504
2 13.8722 3.86306 -1.15657
1 5.61825 9.17301 -7.8493
2 -27.9537 -9.8733 1.9863
1 16.7143 -7.29145 -8.8949
2 -0.212452 -7.02925 -8.82279
2 29.6369 0.160615 7.26388
1 0.746347 6.65788 -0.955442
1 -9.30308 -8.5029 -9.97446
1 28.7641 -4.90533 -3.16077
1 11.1252 -8.95406 -3.01382
2 -11.2483 4.63709 -1.12379
2 -12.9346 2.16708 -8.44576
2 5.6015 -2.81958 7.16635
2 5.14978 2.27428 7.33174
2 -20.0125 4.69192 4.38139
2 -12.8555 3.95523 2.39564
2 9.75296 -9.83303 -3.62194
2 -10.2228 1.15906 6.75214
1 25.6181 9.52697 -9.28089
1 27.9455 5.9977 -6.49878
1 1.47378 -4.41794 -5.99438
1 7.49269 6.77081 4.81286
1 21.8796 4.71455 9.6583
2 -10.0011 0.774814 0.725
1 12.3981 0.769562 -3.17515
2 -28.0773 8.28193 7.44253
2 19.9015 2.46879 -2.79769
1 15.4646 -8.50826 -1.17649
2 -15.2704 3.77616 -9.49375
1 -6.36236 9.1858 -3.49663
1 16.9262 -6.68093 0.499035
1 -3.98856 -9.30293 -2.75239
2 -12.7924 -8.26794 4.88824
2 19.5138 -8.36045 -1.2997
2 -6.96196 -1.51631 0.317138
1 -26.6497 -0.437727 -7.8219
1 -18.1152 -7.76425 5.83435
1 28.7576 -8.12202 -2.77215
2 -2.74875 -2.17056 -0.18583
2 -19.5547 -3.96025 -9.60101
1 -0.504749 -7.53161 0.845534
1 11.4448 -2.35947 1.5611
2 13.6786 7.90424 -0.108156
2 21.827 9.36421 -1.24968
1 11.0438 -4.5992 -0.239595
1 -15.4183 -3.58416 -1.65911
2 -4.97333 -6.90906 -5.20343
1 20.2067 0.757517 9.41284
1 -26.1161 2.36675 6.93501
2 -19.266 6.79961 6.31403
1 11.8354 -3.69009 9.90674
1 18.9231 -0.219318 9.85809
2 8.95444 -5.77108 -9.85981
2 25.672 -2.72791 5.19926
2 -14.234 -3.84596 -3.29736
2 10.6615 -4.89943 2.5889
1 29.1286 8.53089 -9.12004
2 1.53544 -7.04348 0.371504
2 10.6575 2.35566 -1.30367
2 -28.545 3.11214 9.26542
1 22.4541 9.71995 -3.02994
1 -12.0479 6.47295 3.28512
2 24.3722 3.08388 -1.20901
1 -25.0572 4.42204 7.90032
2 -25.5021 -7.17747 -1.40947
1 -9.49853 7.20879 -6.70212
1 22.1104 7.09256 7.46161
1 29.9683 -4.81234 -3.27081
1 19.4451 1.81027 -9.4093
1 19.114 -9.56758 0.972893
1 23.1748 -8.03586 -9.42796
1 28.363 -3.59224 0.107442
1 3.84555 2.12627 -2.26614
1 28.7178 4.57439 6.49063
2 25.1918 -4.3011 -0.609277
2 -9.274 4.57264 3.40434
1 -28.6156 -8.34996 7.05197
1 6.81394 4.16361 -5.7662
1 -3.48309 5.17587 6.04232
2 5.29787 -1.79004 2.14026
2 10.4557 0.173696 9.82721
2 -18.0221 -4.33977 -8.0926
1 -8.38216 -7.99579 3.14071
1 7.33933 0.244444 2.27071
2 0.250043 -3.14814 2.23723
2 -19.5577 -6.60322 -8.45363
2 24.38 9.98362 2.32804
1 1.24831 -9.30825 0.816943
2 19.0163 4.47942 -6.01293
1 -0.330279 -2.60428 -9.22951
1 23.235 -6.51046 6.22023
1 8.21053 -6.67202 6.96041
1 -18.5197 -4.43408 -2.63498
1 -7.46706 -4.96403 4.80781
2 7.14323 7.06118 -0.507594
1 -29.0621 8.67249 5.33094
2 24.2623 -5.63667 -6.99226
1 -15.8411 -9.64667 9.54394
1 9.80573 -1.73195 -8.67936
1 11.1785 -7.95658 -8.3902
2 28.6575 -9.8575 0.3415
1 23.3283 6.40891 0.0367301
1 10.5545 1.66326 3.66002
1 -14.1037 1.41544 0.74288
1 -6.01141 -8.82893 4.7057
1 -28.8602 5.43086 -4.80268
2 -13.1986 -6.70308 7.74067
1 -26.8023 4.03538 -4.9757
1 9.58484 -4.9186 -1.70904
2 6.35029 -7.12317 -9.62261
1 10.7439 4.02981 7.27393
1 -13.3845 -6.52136 3.76041
1 20.323 -7.10387 8.22449
2 -17.1018 2.2384 2.1345
1 22.596 3.20169 1.51244
1 -11.7402 0.800646 6.57525
1 24.5877 9.7347 7.65791
1 7.58609 0.974822 -6.10725
2 -11.5303 8.66649 -1.44671
1 19.3428 0.70459 -5.46257
1 6.6552 -6.02224 3.28893
2 -29.6273 -6.69427 9.243
2 -15.7574 3.98663 -2.50163
1 2.11097 5.16934 4.64932
1 13.4714 -6.95247 1.2028
1 29.2273 0.642338 -6.77
2 -16.2946 -7.78602 -5.10819
1 16.3588 2.04243 -7.03068
2 4.60687 -2.60665 3.91205
1 19.1624 5.02228 4.71777
2 -27.0238 -7.86987 0.235486
2 -3.07459 8.19692 0.0558634
1 25.3604 1.38747 -5.04999
1 25.1749 4.52563 6.86003
1 -0.53412 -9.93155 9.23338
2 20.4007 -6.77669 2.2625
1 15.1511 -0.438781 2.85674
2 22.4927 1.86065 -3.27606
2 -22.8732 6.44724 7.78442
1 -2.29301 5.77592 -1.58143
1 15.7212 1.00788 7.54878
2 -6.94047 0.476893 -4.28413
2 -7.78783 -8.29869 -4.42133
2 19.5112 5.93182 -6.75019
1 -29.9879 8.4932 2.42639
2 10.6497 4.29406 2.90457
2 -15.3384 -6.62714 -4.57068
1 7.69081 8.55549 -0.989531
1 -17.89 4.96514 -0.0633751
2 1.47301 8.09319 -4.16151
1 19.225 9.45124 -3.60573
1 -6.04954 -1.3779 3.78764
1 4.42929 7.09569 1.22762
1 -15.4109 3.69133 -3.77181
1 -24.2115 -9.91755 -2.92273
2 8.99442 -2.93466 -8.33187
1 28.0813 0.402768 -6.06747
1 2.49374 -1.70193 7.9728
1 3.14722 5.39108 4.1821
1 15.4454 2.50866 6.72421
1 13.0611 2.933 3.51468
2 -8.16476 4.66597 0.411316
1 18.948 1.09055 -6.61495
2 -5.89035 -7.71259 1.65641
1 11.6697 -9.18891 4.63496
1 22.3482 3.40706 -1.04215
1 16.6757 -7.47507 4.50116
1 4.09727 -8.80895 -3.16226
2 -23.8162 1.32299 -3.30651
2 9.49455 2.40255 4.94041
1 -6.97511 -2.11651 -7.93327
2 -5.10042 -8.59434 -2.57861
1 25.043 -6.18261 -4.26769
1 -15.6351 -9.39432 5.6369
2 -21.9512 -0.462391 3.90817
1 -22.0198 6.69852 3.9137
2 -17.1779 -0.606149 7.22773
1 18.472 -9.7203 6.24884
2 0.364562 -5.9588 9.06496
1 22.8779 -4.56218 -6.65921
1 -4.76981 5.33004 0.896502
2 -8.03578 6.81851 -7.08436
2 -11.3543 9.80557 1.49849
1 -29.9986 2.2893 6.69936
1 0.771193 -9.47255 -1.90383
1 -13.7567 6.95274 -7.19485
2 2.59076 4.39126 -1.86557
1 24.5659 -5.04531 -2.71471
1 6.21476 -4.1752 -9.30672
1 1.08793 -2.04035 -8.8522
1 22.6411 -2.71405 -4.37383
1 8.85778 4.05137 9.76462
1 23.3245 1.90795 2.36696
1 18.9011 8.0057 -6.22008
1 14.8342 -6.87314 0.848508
2 13.4445 -5.91996 -9.84894
2 -24.8431 7.84525 -9.99941
1 27.7866 -3.83527 -0.763918
2 22.3357 -5.44477 -5.02171
1 9.32627 9.3526 -4.36054
2 -0.595846 6.8289 3.75133
1 0.091974 -1.22578 2.10662
1 -0.685515 3.26508 1.80653
1 -3.23953 -3.93206 -3.09007
1 -6.70314 -0.958251 -0.5279
2 -1.15588 -6.70512 -1.35362
2 -0.0135278 2.02252 -8.99191
2 -28.2058 5.21193 0.0214256
2 27.3982 -9.28035 -1.00084
2 -4.47726 7.307 7.84816
1 -15.0811 -7.64643 -3.25921
2 -5.83382 -8.97031 1.29254
2 11.9237 -2.08044 -5.44258
1 -17.1253 8.67157 8.04895
1 13.9112 1.07538 -2.24992
1 13.036 3.26756 -6.50248
1 12.7148 7.22211 -9.52144
1 -2.78997 8.03214 -5.47779
2 -28.6815 9.4922 -7.6082
1 -24.6064 -6.76892 4.06994
2 -3.24814 6.60863 6.17607
2 -12.5054 7.51608 4.36675
2 -9.95787 -4.99202 1.47961
2 -13.9 7.96572 -7.31469
1 18.0471 0.525846 -5.78379
2 -11.0045 -4.58517 -0.330155
1 18.0811 -4.58161 -7.13254
1 19.2531 -9.72284 4.04862
1 16.458 -7.35508 -4.54105
1 5.8761 -1.41734 -1.76513
1 -21.0742 6.74543 -0.431858
1 -10.1053 -4.90779 -7.62906
2 10.0949 -7.59294 4.53144
1 17.1691 2.66143 3.7544
2 3.05764 -7.9319 -4.8521
1 -24.6238 5.99629 -8.50622
1 24.892 2.91242 -8.64228
2 13.0805 8.74365 -9.16176
1 18.5369 6.87393 3.12852
2 -7.47518 9.98132 -4.75247